<VTKFile type="UnstructuredGrid" version="0.1" byte_order="LittleEndian">
<UnstructuredGrid>
	<Piece NumberOfPoints="4224" NumberOfCells="8192">
		<CellData Scalars="density" Vectors="velocity">
			<DataArray type="Float64" Name="density" Format="ascii">
				0.979415
				0.979593
				0.979226
				0.979504
				0.978834
				0.979232
				0.978214
				0.978757
				0.977332
				0.978051
				0.976142
				0.977074
				0.97459
				0.975779
				0.972623
				0.974112
				0.970185
				0.972022
				0.967225
				0.969456
				0.963696
				0.966366
				0.959555
				0.962712
				0.954782
				0.958463
				0.94936
				0.9536
				0.94328
				0.948115
				0.936561
				0.942013
				0.929215
				0.935312
				0.921301
				0.928047
				0.912864
				0.920269
				0.903992
				0.912046
				0.894775
				0.903462
				0.885309
				0.894613
				0.875739
				0.885616
				0.86621
				0.876605
				0.856877
				0.867728
				0.847919
				0.859143
				0.839506
				0.851019
				0.831862
				0.843538
				0.825184
				0.836891
				0.819647
				0.831257
				0.815426
				0.826801
				0.812721
				0.823686
				0.811607
				0.822042
				0.812209
				0.821956
				0.814503
				0.823473
				0.81847
				0.826578
				0.824057
				0.831231
				0.831141
				0.837345
				0.839539
				0.844787
				0.849108
				0.853403
				0.859669
				0.863043
				0.871051
				0.873543
				0.883076
				0.884738
				0.895554
				0.896463
				0.908359
				0.908567
				0.921346
				0.920915
				0.934351
				0.93337
				0.947301
				0.945811
				0.96002
				0.958122
				0.972446
				0.970191
				0.984461
				0.981927
				0.995988
				0.993236
				1.00694
				1.00404
				1.01723
				1.01425
				1.0268
				1.0238
				1.03559
				1.03264
				1.04355
				1.0407
				1.05061
				1.04793
				1.05675
				1.05429
				1.06192
				1.05973
				1.06609
				1.06423
				1.06924
				1.06776
				1.07135
				1.07029
				1.07241
				1.07182
				1.07241
				1.07233
				1.07135
				1.07182
				1.06924
				1.07029
				1.06609
				1.06776
				1.06192
				1.06423
				1.05675
				1.05973
				1.05061
				1.05429
				1.04355
				1.04793
				1.03559
				1.0407
				1.0268
				1.03264
				1.01723
				1.0238
				1.00694
				1.01425
				0.995988
				1.00404
				0.984461
				0.993236
				0.972449
				0.981928
				0.960013
				0.97019
				0.947299
				0.95812
				0.934359
				0.945813
				0.921344
				0.933372
				0.908358
				0.920915
				0.895554
				0.908566
				0.883076
				0.896463
				0.871048
				0.884737
				0.859676
				0.873544
				0.849106
				0.863044
				0.839538
				0.853403
				0.831141
				0.844786
				0.824057
				0.837345
				0.81847
				0.831231
				0.814503
				0.826578
				0.812209
				0.823473
				0.811607
				0.821956
				0.812721
				0.822042
				0.815426
				0.823686
				0.819647
				0.826801
				0.825184
				0.831257
				0.831862
				0.836891
				0.839506
				0.843538
				0.847919
				0.851019
				0.856877
				0.859143
				0.86621
				0.867728
				0.875739
				0.876605
				0.885309
				0.885616
				0.894775
				0.894614
				0.903992
				0.903462
				0.912864
				0.912047
				0.921303
				0.92027
				0.929211
				0.928046
				0.936561
				0.935311
				0.94328
				0.942013
				0.94936
				0.948115
				0.954782
				0.9536
				0.959555
				0.958463
				0.963696
				0.962712
				0.967224
				0.966366
				0.970186
				0.969456
				0.972623
				0.972022
				0.97459
				0.974112
				0.976142
				0.975779
				0.977332
				0.977074
				0.978214
				0.978051
				0.978834
				0.978757
				0.979226
				0.979232
				0.979415
				0.979504
				0.980577
				0.980398
				0.980433
				0.980321
				0.980134
				0.980084
				0.979656
				0.979669
				0.978964
				0.979046
				0.978018
				0.978175
				0.976767
				0.977009
				0.975162
				0.975496
				0.973152
				0.973585
				0.970688
				0.971223
				0.967732
				0.968365
				0.964249
				0.964973
				0.960216
				0.961014
				0.955622
				0.956472
				0.950465
				0.951336
				0.944757
				0.945609
				0.938522
				0.939309
				0.931801
				0.932465
				0.924647
				0.925125
				0.917129
				0.917349
				0.909331
				0.909216
				0.901351
				0.900815
				0.893302
				0.892257
				0.885313
				0.883667
				0.877523
				0.875185
				0.870082
				0.866963
				0.863152
				0.859168
				0.856899
				0.851975
				0.851491
				0.845572
				0.847087
				0.840134
				0.843835
				0.835831
				0.841863
				0.832822
				0.841268
				0.831234
				0.842106
				0.831158
				0.844392
				0.832634
				0.848098
				0.835653
				0.853159
				0.840171
				0.859474
				0.846097
				0.866917
				0.8533
				0.875346
				0.861632
				0.884616
				0.870939
				0.894576
				0.881059
				0.905079
				0.891831
				0.915984
				0.903094
				0.927157
				0.914703
				0.938474
				0.926526
				0.949821
				0.938431
				0.961087
				0.950303
				0.972175
				0.962031
				0.982991
				0.973513
				0.993452
				0.984662
				1.00348
				0.995391
				1.013
				1.00562
				1.02195
				1.01529
				1.03027
				1.02432
				1.03792
				1.03267
				1.04483
				1.04027
				1.05096
				1.04709
				1.05629
				1.05308
				1.06078
				1.05821
				1.06441
				1.06245
				1.06714
				1.06576
				1.06897
				1.06815
				1.06989
				1.06958
				1.06989
				1.07006
				1.06897
				1.06958
				1.06714
				1.06815
				1.06441
				1.06576
				1.06078
				1.06245
				1.05629
				1.05821
				1.05096
				1.05308
				1.04483
				1.04709
				1.03792
				1.04027
				1.03027
				1.03267
				1.02195
				1.02432
				1.013
				1.01529
				1.00348
				1.00562
				0.993452
				0.995391
				0.98299
				0.984662
				0.972175
				0.973513
				0.961088
				0.962029
				0.949822
				0.950304
				0.938475
				0.938432
				0.927157
				0.926526
				0.915984
				0.914703
				0.905079
				0.903094
				0.894576
				0.891831
				0.884616
				0.88106
				0.875346
				0.87094
				0.866917
				0.861632
				0.859474
				0.853299
				0.853159
				0.846097
				0.848098
				0.840171
				0.844392
				0.835653
				0.842106
				0.832634
				0.841268
				0.831158
				0.841863
				0.831234
				0.843835
				0.832822
				0.847087
				0.835831
				0.851491
				0.840134
				0.856899
				0.845572
				0.863152
				0.851975
				0.870082
				0.859167
				0.877523
				0.866964
				0.885313
				0.875185
				0.893302
				0.883667
				0.901351
				0.892257
				0.90933
				0.900816
				0.917129
				0.909216
				0.924647
				0.917349
				0.9318
				0.925125
				0.938522
				0.932465
				0.944756
				0.939308
				0.950465
				0.945609
				0.955622
				0.951336
				0.960216
				0.956472
				0.964249
				0.961015
				0.967732
				0.964972
				0.970689
				0.968366
				0.973152
				0.971223
				0.975162
				0.973585
				0.976767
				0.975496
				0.978018
				0.977009
				0.978964
				0.978175
				0.979656
				0.979046
				0.980134
				0.979669
				0.980433
				0.980084
				0.980577
				0.980321
				0.98137
				0.981627
				0.981248
				0.981573
				0.98099
				0.981405
				0.980575
				0.981106
				0.979968
				0.980648
				0.979128
				0.979994
				0.978006
				0.9791
				0.976554
				0.977917
				0.974722
				0.976397
				0.972464
				0.974493
				0.969741
				0.972162
				0.966522
				0.969372
				0.962784
				0.966096
				0.958515
				0.962318
				0.953713
				0.958034
				0.948388
				0.953248
				0.942562
				0.947979
				0.93627
				0.942257
				0.929562
				0.936124
				0.922499
				0.929637
				0.915159
				0.922865
				0.907634
				0.915893
				0.900029
				0.908817
				0.892465
				0.901744
				0.885075
				0.894797
				0.878003
				0.888108
				0.871407
				0.881816
				0.865445
				0.876069
				0.860281
				0.871015
				0.856074
				0.866801
				0.85297
				0.863563
				0.851092
				0.861422
				0.850537
				0.860476
				0.85136
				0.860788
				0.853576
				0.86239
				0.857156
				0.865273
				0.862035
				0.869393
				0.868114
				0.874672
				0.875267
				0.881008
				0.883358
				0.888283
				0.89224
				0.896366
				0.90177
				0.905123
				0.9118
				0.914422
				0.922197
				0.924132
				0.932832
				0.93413
				0.943584
				0.944301
				0.954347
				0.954535
				0.965014
				0.964734
				0.975495
				0.974804
				0.985702
				0.98466
				0.995559
				0.994223
				1.00499
				1.00342
				1.01394
				1.01219
				1.02234
				1.02047
				1.03014
				1.02821
				1.0373
				1.03535
				1.04376
				1.04185
				1.0495
				1.04768
				1.05448
				1.05281
				1.05867
				1.05719
				1.06205
				1.06081
				1.0646
				1.06364
				1.06631
				1.06568
				1.06716
				1.06691
				1.06716
				1.06731
				1.06631
				1.06691
				1.0646
				1.06568
				1.06205
				1.06364
				1.05867
				1.06081
				1.05448
				1.05719
				1.0495
				1.05281
				1.04376
				1.04768
				1.0373
				1.04185
				1.03014
				1.03535
				1.02234
				1.02821
				1.01394
				1.02047
				1.00499
				1.01219
				0.995559
				1.00342
				0.985702
				0.994222
				0.975494
				0.984659
				0.965014
				0.974804
				0.954347
				0.964734
				0.943585
				0.954535
				0.932832
				0.9443
				0.922197
				0.93413
				0.9118
				0.924132
				0.90177
				0.914422
				0.892241
				0.905124
				0.883358
				0.896366
				0.875267
				0.888283
				0.868114
				0.881008
				0.862035
				0.874672
				0.857156
				0.869393
				0.853576
				0.865273
				0.85136
				0.86239
				0.850537
				0.860788
				0.851092
				0.860476
				0.85297
				0.861422
				0.856074
				0.863563
				0.860281
				0.866801
				0.865444
				0.871015
				0.871406
				0.876069
				0.878004
				0.881817
				0.885075
				0.888108
				0.892465
				0.894797
				0.900029
				0.901744
				0.907634
				0.908817
				0.915159
				0.915893
				0.922499
				0.922865
				0.929561
				0.929637
				0.93627
				0.936124
				0.942562
				0.942257
				0.948388
				0.947979
				0.953713
				0.953248
				0.958515
				0.958034
				0.962784
				0.962319
				0.966522
				0.966096
				0.969741
				0.969372
				0.972464
				0.972162
				0.974722
				0.974493
				0.976554
				0.976397
				0.978006
				0.977917
				0.979128
				0.9791
				0.979968
				0.979994
				0.980575
				0.980648
				0.98099
				0.981106
				0.981248
				0.981405
				0.98137
				0.981573
				0.982652
				0.982372
				0.982576
				0.982327
				0.982411
				0.982186
				0.982138
				0.981932
				0.981723
				0.981538
				0.981128
				0.980967
				0.980307
				0.980176
				0.979211
				0.979117
				0.977796
				0.977744
				0.976018
				0.976011
				0.973842
				0.97388
				0.971241
				0.971318
				0.968196
				0.968302
				0.964699
				0.964815
				0.96075
				0.960853
				0.956362
				0.95642
				0.951559
				0.951532
				0.946373
				0.946217
				0.940852
				0.940513
				0.935055
				0.934471
				0.92905
				0.928157
				0.922918
				0.921645
				0.916755
				0.915027
				0.910662
				0.908402
				0.904753
				0.901887
				0.899149
				0.895605
				0.893977
				0.88969
				0.889368
				0.884282
				0.885451
				0.879525
				0.882348
				0.87556
				0.880172
				0.87252
				0.879014
				0.87052
				0.878942
				0.869656
				0.879997
				0.86999
				0.882184
				0.87155
				0.885478
				0.874327
				0.889824
				0.878278
				0.895142
				0.883328
				0.901334
				0.889377
				0.90829
				0.896309
				0.915892
				0.903998
				0.924023
				0.912315
				0.932565
				0.921129
				0.941407
				0.930318
				0.950441
				0.939762
				0.959567
				0.949352
				0.968694
				0.958985
				0.977735
				0.968567
				0.986613
				0.978012
				0.995255
				0.98724
				1.0036
				0.996179
				1.01157
				1.00476
				1.01914
				1.01293
				1.02623
				1.02064
				1.03282
				1.02783
				1.03886
				1.03445
				1.04431
				1.04049
				1.04915
				1.04589
				1.05334
				1.05062
				1.05687
				1.05468
				1.05972
				1.05802
				1.06187
				1.06064
				1.0633
				1.06252
				1.06403
				1.06365
				1.06403
				1.06403
				1.0633
				1.06365
				1.06187
				1.06252
				1.05972
				1.06064
				1.05687
				1.05802
				1.05334
				1.05468
				1.04915
				1.05062
				1.04431
				1.04589
				1.03886
				1.04049
				1.03282
				1.03445
				1.02623
				1.02783
				1.01914
				1.02064
				1.01157
				1.01293
				1.0036
				1.00476
				0.995255
				0.996178
				0.986613
				0.98724
				0.977735
				0.978012
				0.968694
				0.968567
				0.959567
				0.958985
				0.950441
				0.949352
				0.941407
				0.939763
				0.932566
				0.930318
				0.924023
				0.921129
				0.915893
				0.912315
				0.90829
				0.903999
				0.901335
				0.896309
				0.895142
				0.889377
				0.889824
				0.883328
				0.885478
				0.878278
				0.882184
				0.874327
				0.879997
				0.87155
				0.878942
				0.86999
				0.879014
				0.869656
				0.880172
				0.87052
				0.882348
				0.87252
				0.885451
				0.87556
				0.889368
				0.879525
				0.893977
				0.884282
				0.899149
				0.88969
				0.904753
				0.895605
				0.910662
				0.901887
				0.916755
				0.908402
				0.922919
				0.915027
				0.92905
				0.921646
				0.935055
				0.928157
				0.940853
				0.934472
				0.946373
				0.940513
				0.951559
				0.946217
				0.956363
				0.951532
				0.96075
				0.95642
				0.964699
				0.960853
				0.968196
				0.964815
				0.971241
				0.968302
				0.973842
				0.971318
				0.976018
				0.97388
				0.977796
				0.976011
				0.979211
				0.977744
				0.980307
				0.979117
				0.981128
				0.980176
				0.981723
				0.980967
				0.982138
				0.981538
				0.982411
				0.981932
				0.982576
				0.982186
				0.982652
				0.982327
				0.98332
				0.983666
				0.983258
				0.983644
				0.983124
				0.983574
				0.982896
				0.98344
				0.982543
				0.983216
				0.982025
				0.982866
				0.9813
				0.982348
				0.980322
				0.981615
				0.979045
				0.980622
				0.97743
				0.979324
				0.975445
				0.977686
				0.973064
				0.975677
				0.970271
				0.973278
				0.967057
				0.970477
				0.963425
				0.967272
				0.959385
				0.963672
				0.954958
				0.959695
				0.950177
				0.955368
				0.945084
				0.950731
				0.93973
				0.945831
				0.934182
				0.940728
				0.928512
				0.935491
				0.922808
				0.930198
				0.917166
				0.924937
				0.911691
				0.919804
				0.906498
				0.914901
				0.901705
				0.910338
				0.897436
				0.906226
				0.893813
				0.902676
				0.890955
				0.899798
				0.888964
				0.89769
				0.887931
				0.896436
				0.887919
				0.896105
				0.888964
				0.896738
				0.891071
				0.898354
				0.894217
				0.900942
				0.898347
				0.904465
				0.903385
				0.908864
				0.909237
				0.91406
				0.915797
				0.919965
				0.922953
				0.926477
				0.930593
				0.933494
				0.938604
				0.940914
				0.946881
				0.948635
				0.955323
				0.956562
				0.963836
				0.964603
				0.972333
				0.972675
				0.980736
				0.980698
				0.988972
				0.988601
				0.996975
				0.996318
				1.00469
				1.00379
				1.01205
				1.01096
				1.01902
				1.01778
				1.02555
				1.02421
				1.0316
				1.0302
				1.03714
				1.03573
				1.04214
				1.04075
				1.04657
				1.04525
				1.05041
				1.04919
				1.05363
				1.05256
				1.05623
				1.05534
				1.05819
				1.05752
				1.05951
				1.05908
				1.06016
				1.06002
				1.06016
				1.06034
				1.05951
				1.06002
				1.05819
				1.05908
				1.05623
				1.05752
				1.05363
				1.05534
				1.05041
				1.05256
				1.04657
				1.04919
				1.04214
				1.04525
				1.03714
				1.04075
				1.0316
				1.03573
				1.02555
				1.0302
				1.01902
				1.02421
				1.01205
				1.01778
				1.00468
				1.01096
				0.996975
				1.00379
				0.988972
				0.996318
				0.980736
				0.988601
				0.972333
				0.980698
				0.963836
				0.972675
				0.955323
				0.964603
				0.946881
				0.956562
				0.938604
				0.948635
				0.930593
				0.940914
				0.922953
				0.933494
				0.915797
				0.926477
				0.909237
				0.919965
				0.903385
				0.91406
				0.898347
				0.908864
				0.894217
				0.904465
				0.891071
				0.900942
				0.888964
				0.898354
				0.887919
				0.896738
				0.887931
				0.896105
				0.888964
				0.896436
				0.890955
				0.89769
				0.893814
				0.899798
				0.897436
				0.902676
				0.901705
				0.906225
				0.906498
				0.910338
				0.911691
				0.914901
				0.917166
				0.919804
				0.922808
				0.924937
				0.928512
				0.930198
				0.934181
				0.935491
				0.93973
				0.940728
				0.945084
				0.945831
				0.950177
				0.950731
				0.954958
				0.955368
				0.959385
				0.959695
				0.963425
				0.963672
				0.967057
				0.967272
				0.970271
				0.970477
				0.973064
				0.973278
				0.975445
				0.975677
				0.97743
				0.977686
				0.979045
				0.979324
				0.980322
				0.980622
				0.9813
				0.981615
				0.982025
				0.982347
				0.982542
				0.982866
				0.982896
				0.983216
				0.983124
				0.98344
				0.983258
				0.983574
				0.98332
				0.983644
				0.984603
				0.984216
				0.984591
				0.984201
				0.984555
				0.984149
				0.984476
				0.984046
				0.984322
				0.983865
				0.984054
				0.983572
				0.983627
				0.983126
				0.982995
				0.982483
				0.982112
				0.981599
				0.980939
				0.980432
				0.979444
				0.978949
				0.977606
				0.977123
				0.975412
				0.974937
				0.972858
				0.972381
				0.96995
				0.969455
				0.966702
				0.966167
				0.963138
				0.962534
				0.959292
				0.958582
				0.955203
				0.954346
				0.950922
				0.949871
				0.946507
				0.94521
				0.942025
				0.940426
				0.937548
				0.935591
				0.933157
				0.930786
				0.928939
				0.926098
				0.924985
				0.921623
				0.921389
				0.917461
				0.918245
				0.913716
				0.915647
				0.910493
				0.91368
				0.907892
				0.912421
				0.906004
				0.911931
				0.90491
				0.912255
				0.90467
				0.913415
				0.905325
				0.915412
				0.906889
				0.918225
				0.909351
				0.921811
				0.912678
				0.926112
				0.916811
				0.931054
				0.921679
				0.936557
				0.927195
				0.942533
				0.933266
				0.948894
				0.939794
				0.95555
				0.946684
				0.962418
				0.95384
				0.969416
				0.961173
				0.976467
				0.968598
				0.9835
				0.976037
				0.990451
				0.983418
				0.99726
				0.990676
				1.00387
				0.99775
				1.01024
				1.00459
				1.01632
				1.01114
				1.02207
				1.01736
				1.02745
				1.02321
				1.03244
				1.02866
				1.037
				1.03368
				1.04111
				1.03823
				1.04476
				1.0423
				1.04791
				1.04587
				1.05057
				1.04892
				1.0527
				1.05143
				1.05431
				1.05339
				1.05539
				1.0548
				1.05593
				1.05565
				1.05593
				1.05593
				1.05539
				1.05565
				1.05431
				1.0548
				1.0527
				1.05339
				1.05057
				1.05143
				1.04791
				1.04892
				1.04476
				1.04587
				1.04111
				1.0423
				1.037
				1.03823
				1.03244
				1.03368
				1.02745
				1.02866
				1.02207
				1.02321
				1.01632
				1.01736
				1.01024
				1.01114
				1.00387
				1.00459
				0.99726
				0.99775
				0.990451
				0.990676
				0.9835
				0.983418
				0.976466
				0.976037
				0.969416
				0.968598
				0.962418
				0.961173
				0.955551
				0.95384
				0.948894
				0.946684
				0.942533
				0.939794
				0.936557
				0.933266
				0.931054
				0.927195
				0.926112
				0.921679
				0.921811
				0.916811
				0.918225
				0.912678
				0.915412
				0.909351
				0.913415
				0.906889
				0.912255
				0.905325
				0.911931
				0.90467
				0.912421
				0.90491
				0.91368
				0.906004
				0.915647
				0.907892
				0.918245
				0.910493
				0.921389
				0.913716
				0.924985
				0.917461
				0.928939
				0.921623
				0.933157
				0.926098
				0.937548
				0.930786
				0.942025
				0.935591
				0.946507
				0.940426
				0.950922
				0.94521
				0.955203
				0.949871
				0.959292
				0.954346
				0.963138
				0.958582
				0.966702
				0.962534
				0.96995
				0.966167
				0.972858
				0.969455
				0.975412
				0.972381
				0.977606
				0.974937
				0.979444
				0.977123
				0.980938
				0.978949
				0.982112
				0.980432
				0.982995
				0.981599
				0.983627
				0.982483
				0.984054
				0.983126
				0.984322
				0.983572
				0.984476
				0.983865
				0.984555
				0.984046
				0.984591
				0.984149
				0.984603
				0.984201
				0.98501
				0.985447
				0.985007
				0.985457
				0.984991
				0.985483
				0.984942
				0.985507
				0.984829
				0.985505
				0.984615
				0.98544
				0.984256
				0.985268
				0.983707
				0.984941
				0.982927
				0.984412
				0.981879
				0.98364
				0.980536
				0.982589
				0.978878
				0.981236
				0.976894
				0.979566
				0.974584
				0.977575
				0.971953
				0.975266
				0.969016
				0.972653
				0.965795
				0.969757
				0.962321
				0.966605
				0.95863
				0.963235
				0.954768
				0.959687
				0.950787
				0.956012
				0.946747
				0.952265
				0.942715
				0.948508
				0.938764
				0.944806
				0.934972
				0.941232
				0.931423
				0.937861
				0.928202
				0.934771
				0.925397
				0.932042
				0.923092
				0.929751
				0.921366
				0.927971
				0.920289
				0.926769
				0.919915
				0.926199
				0.920285
				0.926305
				0.921419
				0.927112
				0.923316
				0.928628
				0.925956
				0.930841
				0.929299
				0.933724
				0.933291
				0.937235
				0.937864
				0.941316
				0.942941
				0.945903
				0.948443
				0.950924
				0.954287
				0.956305
				0.960391
				0.96197
				0.966676
				0.967845
				0.973069
				0.973858
				0.979499
				0.979941
				0.985901
				0.986032
				0.992216
				0.992072
				0.998391
				0.998008
				1.00438
				1.00379
				1.01013
				1.00938
				1.01562
				1.01473
				1.02079
				1.0198
				1.02563
				1.02458
				1.03011
				1.02902
				1.0342
				1.03311
				1.03789
				1.03682
				1.04115
				1.04013
				1.04397
				1.04303
				1.04633
				1.04551
				1.04824
				1.04755
				1.04968
				1.04915
				1.05064
				1.0503
				1.05112
				1.05099
				1.05112
				1.05122
				1.05064
				1.05099
				1.04968
				1.0503
				1.04824
				1.04915
				1.04633
				1.04755
				1.04397
				1.04551
				1.04115
				1.04303
				1.03789
				1.04013
				1.0342
				1.03682
				1.03011
				1.03311
				1.02563
				1.02902
				1.02079
				1.02458
				1.01561
				1.0198
				1.01013
				1.01473
				1.00438
				1.00938
				0.998391
				1.00379
				0.992216
				0.998008
				0.985901
				0.992072
				0.979499
				0.986032
				0.973069
				0.979941
				0.966677
				0.973858
				0.960391
				0.967845
				0.954287
				0.96197
				0.948443
				0.956306
				0.942941
				0.950925
				0.937863
				0.945903
				0.933291
				0.941316
				0.929299
				0.937235
				0.925956
				0.933724
				0.923316
				0.930841
				0.921419
				0.928628
				0.920285
				0.927112
				0.919915
				0.926305
				0.920289
				0.926199
				0.921366
				0.926769
				0.923092
				0.927971
				0.925397
				0.929751
				0.928202
				0.932042
				0.931423
				0.934771
				0.934972
				0.937861
				0.938764
				0.941232
				0.942715
				0.944806
				0.946747
				0.948508
				0.950787
				0.952265
				0.954768
				0.956012
				0.95863
				0.959687
				0.962321
				0.963235
				0.965795
				0.966605
				0.969016
				0.969757
				0.971953
				0.972653
				0.974584
				0.975266
				0.976894
				0.977575
				0.978878
				0.979566
				0.980536
				0.981236
				0.981879
				0.982589
				0.982927
				0.98364
				0.983707
				0.984412
				0.984256
				0.984941
				0.984615
				0.985268
				0.984829
				0.98544
				0.984942
				0.985505
				0.984991
				0.985507
				0.985007
				0.985483
				0.98501
				0.985457
				0.986178
				0.985688
				0.986228
				0.985702
				0.986319
				0.985739
				0.986427
				0.985784
				0.986521
				0.985811
				0.986558
				0.985786
				0.986488
				0.985666
				0.986262
				0.985405
				0.985834
				0.984958
				0.985166
				0.984288
				0.984231
				0.983363
				0.983012
				0.982162
				0.981504
				0.980674
				0.979711
				0.978896
				0.977644
				0.976833
				0.975324
				0.974499
				0.972775
				0.971914
				0.97003
				0.969102
				0.967125
				0.966098
				0.964103
				0.962939
				0.961008
				0.959669
				0.957894
				0.956338
				0.954814
				0.953001
				0.951827
				0.949717
				0.948995
				0.946551
				0.946382
				0.943572
				0.944053
				0.940848
				0.942072
				0.938453
				0.940501
				0.936455
				0.939395
				0.934921
				0.938804
				0.93391
				0.938765
				0.933471
				0.939305
				0.933641
				0.940435
				0.934443
				0.942153
				0.935882
				0.944441
				0.937949
				0.947269
				0.940617
				0.950596
				0.943846
				0.95437
				0.947586
				0.958535
				0.951775
				0.963029
				0.95635
				0.967789
				0.961241
				0.972751
				0.96638
				0.977854
				0.971699
				0.983039
				0.977133
				0.98825
				0.982621
				0.993436
				0.988106
				0.998549
				0.993535
				1.00355
				0.99886
				1.00839
				1.00404
				1.01304
				1.00903
				1.01747
				1.01381
				1.02166
				1.01833
				1.02557
				1.02258
				1.02918
				1.02652
				1.03248
				1.03015
				1.03545
				1.03343
				1.03808
				1.03637
				1.04035
				1.03893
				1.04226
				1.04112
				1.04379
				1.04292
				1.04495
				1.04433
				1.04572
				1.04534
				1.04611
				1.04594
				1.04611
				1.04615
				1.04572
				1.04594
				1.04495
				1.04534
				1.04379
				1.04433
				1.04226
				1.04292
				1.04035
				1.04112
				1.03808
				1.03893
				1.03545
				1.03637
				1.03248
				1.03343
				1.02918
				1.03015
				1.02557
				1.02652
				1.02166
				1.02258
				1.01747
				1.01833
				1.01304
				1.01381
				1.00839
				1.00903
				1.00355
				1.00404
				0.998549
				0.99886
				0.993436
				0.993535
				0.98825
				0.988106
				0.983039
				0.982621
				0.977854
				0.977133
				0.972751
				0.971699
				0.967788
				0.96638
				0.963029
				0.961241
				0.958535
				0.95635
				0.95437
				0.951775
				0.950596
				0.947586
				0.947269
				0.943846
				0.944441
				0.940617
				0.942153
				0.937949
				0.940435
				0.935882
				0.939305
				0.934443
				0.938765
				0.933641
				0.938804
				0.933471
				0.939395
				0.93391
				0.940501
				0.934921
				0.942072
				0.936455
				0.944053
				0.938453
				0.946382
				0.940848
				0.948995
				0.943572
				0.951827
				0.946551
				0.954814
				0.949717
				0.957894
				0.953001
				0.961008
				0.956338
				0.964103
				0.959669
				0.967125
				0.962939
				0.97003
				0.966098
				0.972775
				0.969102
				0.975324
				0.971914
				0.977644
				0.974499
				0.979711
				0.976833
				0.981504
				0.978896
				0.983012
				0.980674
				0.984231
				0.982162
				0.985166
				0.983363
				0.985834
				0.984288
				0.986262
				0.984958
				0.986488
				0.985405
				0.986558
				0.985666
				0.986521
				0.985786
				0.986427
				0.985811
				0.986319
				0.985784
				0.986228
				0.985739
				0.986178
				0.985702
				0.986249
				0.986768
				0.986307
				0.98681
				0.986411
				0.98693
				0.986542
				0.98711
				0.986667
				0.987323
				0.986745
				0.987526
				0.986728
				0.98767
				0.98657
				0.987702
				0.986228
				0.98757
				0.985667
				0.987232
				0.984862
				0.986657
				0.983801
				0.985826
				0.982481
				0.984733
				0.980906
				0.983381
				0.979089
				0.981781
				0.977048
				0.979954
				0.974807
				0.977922
				0.972394
				0.975714
				0.969842
				0.973364
				0.967188
				0.970906
				0.964474
				0.96838
				0.961745
				0.965828
				0.95905
				0.963295
				0.956441
				0.960829
				0.953973
				0.958481
				0.951703
				0.956301
				0.949689
				0.954343
				0.947989
				0.952658
				0.946655
				0.951299
				0.945739
				0.950311
				0.945282
				0.949736
				0.945318
				0.949608
				0.945869
				0.949951
				0.946945
				0.95078
				0.948543
				0.952096
				0.950646
				0.953889
				0.953226
				0.956141
				0.956246
				0.95882
				0.959661
				0.961888
				0.963417
				0.965301
				0.96746
				0.969008
				0.971733
				0.972959
				0.976179
				0.9771
				0.980743
				0.98138
				0.985371
				0.985747
				0.990014
				0.990155
				0.994627
				0.994556
				0.999167
				0.998912
				1.0036
				1.00318
				1.00788
				1.00733
				1.01199
				1.01134
				1.0159
				1.01516
				1.01958
				1.01878
				1.02302
				1.02218
				1.02619
				1.02534
				1.02908
				1.02824
				1.03168
				1.03086
				1.03398
				1.0332
				1.03596
				1.03525
				1.03762
				1.037
				1.03896
				1.03844
				1.03997
				1.03956
				1.04064
				1.04037
				1.04098
				1.04085
				1.04098
				1.04101
				1.04064
				1.04085
				1.03997
				1.04037
				1.03896
				1.03956
				1.03762
				1.03844
				1.03596
				1.037
				1.03398
				1.03525
				1.03168
				1.0332
				1.02908
				1.03086
				1.02619
				1.02824
				1.02302
				1.02534
				1.01958
				1.02218
				1.0159
				1.01878
				1.01199
				1.01516
				1.00788
				1.01134
				1.0036
				1.00733
				0.999167
				1.00318
				0.994627
				0.998912
				0.990014
				0.994556
				0.985371
				0.990155
				0.980743
				0.985747
				0.976179
				0.98138
				0.971733
				0.9771
				0.96746
				0.972959
				0.963417
				0.969008
				0.959661
				0.965301
				0.956247
				0.961888
				0.953226
				0.95882
				0.950646
				0.956141
				0.948543
				0.953889
				0.946945
				0.952096
				0.945869
				0.95078
				0.945318
				0.949951
				0.945282
				0.949608
				0.945739
				0.949736
				0.946655
				0.950311
				0.947989
				0.951299
				0.949689
				0.952658
				0.951703
				0.954343
				0.953973
				0.956301
				0.956441
				0.958481
				0.95905
				0.960829
				0.961745
				0.963295
				0.964474
				0.965828
				0.967188
				0.96838
				0.969842
				0.970906
				0.972394
				0.973364
				0.974807
				0.975714
				0.977048
				0.977922
				0.979089
				0.979954
				0.980906
				0.981781
				0.982481
				0.983381
				0.983801
				0.984733
				0.984862
				0.985826
				0.985667
				0.986657
				0.986228
				0.987232
				0.98657
				0.98757
				0.986728
				0.987702
				0.986745
				0.98767
				0.986667
				0.987526
				0.986542
				0.987323
				0.986411
				0.98711
				0.986307
				0.98693
				0.986249
				0.98681
				0.987257
				0.98668
				0.987372
				0.986725
				0.987588
				0.986855
				0.98788
				0.987053
				0.98821
				0.987291
				0.988528
				0.987529
				0.988776
				0.987719
				0.988898
				0.987809
				0.988846
				0.987752
				0.988583
				0.987507
				0.988087
				0.987047
				0.98735
				0.986356
				0.986375
				0.985429
				0.985173
				0.98427
				0.983764
				0.982893
				0.982171
				0.981314
				0.980421
				0.979557
				0.978542
				0.977646
				0.976566
				0.97561
				0.974526
				0.973482