<VTKFile type="UnstructuredGrid" version="0.1" byte_order="LittleEndian">
<UnstructuredGrid>
	<Piece NumberOfPoints="1994" NumberOfCells="1930">
		<PointData Scalars="density" Vectors="velocity">
			<DataArray type="Float64" Name="density" Format="ascii">
				0.258658
				0.181866
				0.267697
				0.20089
				0.250119
				0.249762
				0.257855
				0.257152
				0.255451
				0.252443
				0.248722
				0.244726
				0.23928
				0.232236
				0.2247
				0.216695
				0.208088
				0.199994
				0.192276
				0.185254
				0.181983
				0.183834
				0.188609
				0.193718
				0.198663
				0.207339
				0.217317
				0.225548
				0.233063
				0.240212
				0.246896
				0.253456
				0.25849
				0.26225
				0.265201
				0.267157
				0.267594
				0.266372
				0.263845
				0.261071
				0.257042
				0.251309
				0.245029
				0.238882
				0.23288
				0.225916
				0.218627
				0.213594
				0.208809
				0.203799
				0.201352
				0.200908
				0.203166
				0.209249
				0.215945
				0.223008
				0.229649
				0.236467
				0.242636
				0.247768
				0.251965
				0.255195
				0.25727
				0.258484
				0.259338
				0.259528
				0.250132
				0.250144
				0.250145
				0.250157
				0.250165
				0.250169
				0.250172
				0.250177
				0.250181
				0.250183
				0.250184
				0.250185
				0.250168
				0.250171
				0.250169
				0.250166
				0.250164
				0.250164
				0.250159
				0.250151
				0.250145
				0.25013
				0.250129
				0.250124
				0.250111
				0.250103
				0.250104
				0.250087
				0.250028
				0.249927
				0.249817
				0.249797
				0.249882
				0.249949
				0.249962
				0.249945
				0.249918
				0.249891
				0.249863
				0.249833
				0.249805
				0.249785
				0.249772
				0.249762
				0.249759
				0.249769
				0.249779
				0.249797
				0.24981
				0.249838
				0.249864
				0.24989
				0.249916
				0.249942
				0.249968
				0.249994
				0.250016
				0.250039
				0.250058
				0.250076
				0.250092
				0.250106
				0.250175
				0.249867
				0.250173
				0.250118
				0.249683
				0.249975
				0.250249
				0.250382
				0.250008
				0.250253
				0.249362
				0.249567
				0.250181
				0.25005
				0.250953
				0.250074
				0.250303
				0.247631
				0.249405
				0.250936
				0.250634
				0.248843
				0.25222
				0.25208
				0.246261
				0.249842
				0.243328
				0.250035
				0.247719
				0.253321
				0.252735
				0.246408
				0.254808
				0.255962
				0.246915
				0.251814
				0.250189
				0.250053
				0.250123
				0.249848
				0.243546
				0.253284
				0.249656
				0.235127
				0.250021
				0.243521
				0.238468
				0.246667
				0.249047
				0.227928
				0.250114
				0.248494
				0.255758
				0.254296
				0.252753
				0.261065
				0.26106
				0.250399
				0.249819
				0.250018
				0.25026
				0.250079
				0.249768
				0.249834
				0.249942
				0.249825
				0.250122
				0.249985
				0.25014
				0.25008
				0.256995
				0.240224
				0.250177
				0.247965
				0.250261
				0.249741
				0.249236
				0.250858
				0.249861
				0.250158
				0.250145
				0.250435
				0.225448
				0.250014
				0.250112
				0.249872
				0.250168
				0.24954
				0.250148
				0.250603
				0.250017
				0.250242
				0.256038
				0.247304
				0.249478
				0.244299
				0.249841
				0.254023
				0.250491
				0.250076
				0.233879
				0.251767
				0.249749
				0.232369
				0.246436
				0.237021
				0.25842
				0.24989
				0.216466
				0.250223
				0.251132
				0.25009
				0.251588
				0.250332
				0.247721
				0.250306
				0.258824
				0.250522
				0.249249
				0.248823
				0.250085
				0.246004
				0.250079
				0.264657
				0.24978
				0.226001
				0.243779
				0.25013
				0.249854
				0.249713
				0.249894
				0.250155
				0.249617
				0.253083
				0.25013
				0.250033
				0.248831
				0.250179
				0.249882
				0.2506
				0.249655
				0.252122
				0.249261
				0.250199
				0.250116
				0.249795
				0.249768
				0.250104
				0.246412
				0.249935
				0.248135
				0.249902
				0.249792
				0.254166
				0.250273
				0.250147
				0.250232
				0.212128
				0.230382
				0.249967
				0.249721
				0.250121
				0.235686
				0.249944
				0.250141
				0.249839
				0.250147
				0.249255
				0.245727
				0.250118
				0.250155
				0.256562
				0.249983
				0.250069
				0.258334
				0.256452
				0.250117
				0.250298
				0.250032
				0.250486
				0.249475
				0.251768
				0.248694
				0.250101
				0.249661
				0.249875
				0.250127
				0.249701
				0.249387
				0.25009
				0.261584
				0.25002
				0.252837
				0.263807
				0.247473
				0.251613
				0.243397
				0.249854
				0.25137
				0.232907
				0.249665
				0.250277
				0.250115
				0.250029
				0.255684
				0.249821
				0.249958
				0.249395
				0.249386
				0.237189
				0.253292
				0.249977
				0.250128
				0.252676
				0.249878
				0.250343
				0.25021
				0.25029
				0.250031
				0.239758
				0.248306
				0.250141
				0.250737
				0.250027
				0.249919
				0.250161
				0.250115
				0.250112
				0.246304
				0.249812
				0.249853
				0.249917
				0.225362
				0.250138
				0.24972
				0.251081
				0.25122
				0.250096
				0.250333
				0.250097
				0.240596
				0.249878
				0.250171
				0.256388
				0.249898
				0.249942
				0.249541
				0.250136
				0.250174
				0.250471
				0.250407
				0.250117
				0.249816
				0.248632
				0.249027
				0.244062
				0.25084
				0.250481
				0.249587
				0.218759
				0.2489
				0.250069
				0.24921
				0.25087
				0.249696
				0.24899
				0.254729
				0.250048
				0.250132
				0.250015
				0.250122
				0.250033
				0.214507
				0.251194
				0.250123
				0.253713
				0.250169
				0.255574
				0.251612
				0.253119
				0.250044
				0.250906
				0.248138
				0.203409
				0.209261
				0.237236
				0.250003
				0.250495
				0.250829
				0.250122
				0.241218
				0.25036
				0.249786
				0.249904
				0.250063
				0.258549
				0.250091
				0.243663
				0.250229
				0.249487
				0.220419
				0.250289
				0.266152
				0.250156
				0.259446
				0.250143
				0.25742
				0.249382
				0.250175
				0.250113
				0.2501
				0.250187
				0.249762
				0.250226
				0.249133
				0.253716
				0.250674
				0.242507
				0.250654
				0.249675
				0.24743
				0.249913
				0.250483
				0.249882
				0.249805
				0.249958
				0.250007
				0.249888
				0.248327
				0.250759
				0.250116
				0.250736
				0.229548
				0.249608
				0.233916
				0.26078
				0.249921
				0.250055
				0.249846
				0.251582
				0.253496
				0.250135
				0.250024
				0.248431
				0.252124
				0.249854
				0.250162
				0.250111
				0.250142
				0.248805
				0.249856
				0.250118
				0.249864
				0.250395
				0.250108
				0.247846
				0.24997
				0.250413
				0.250023
				0.250095
				0.249703
				0.254414
				0.250228
				0.25116
				0.252044
				0.250202
				0.250081
				0.247638
				0.249887
				0.249854
				0.24988
				0.250175
				0.250734
				0.250164
				0.250202
				0.250144
				0.250115
				0.24998
				0.25032
				0.250073
				0.25279
				0.247751
				0.249985
				0.249612
				0.241173
				0.250093
				0.251687
				0.248664
				0.254082
				0.241148
				0.249312
				0.24975
				0.236433
				0.248343
				0.249569
				0.250182
				0.238086
				0.245771
				0.249132
				0.249038
				0.243326
				0.249743
				0.249605
				0.25011
				0.249745
				0.239686
				0.246531
				0.250009
				0.250148
				0.250107
				0.23367
				0.249604
				0.214381
				0.244712
				0.249935
				0.258438
				0.249979
				0.249541
				0.250297
				0.250518
				0.256926
				0.250311
				0.250073
				0.252433
				0.249922
				0.249394
				0.248989
				0.25055
				0.250123
				0.250683
				0.249999
				0.249672
				0.251613
				0.239675
				0.243128
				0.249074
				0.24898
				0.250152
				0.250111
				0.249639
				0.266469
				0.250117
				0.23528
				0.227541
				0.25012
				0.250269
				0.250118
				0.24755
				0.249837
				0.249793
				0.250115
				0.249968
				0.250033
				0.249876
				0.258333
				0.249499
				0.251078
				0.249987
				0.251501
				0.249806
				0.250169
				0.249817
				0.250149
				0.22857
				0.250331
				0.249801
				0.255396
				0.254283
				0.252196
				0.251124
				0.251437
				0.250008
				0.249621
				0.250327
				0.20003
				0.249346
				0.249737
				0.249885
				0.249673
				0.250589
				0.250291
				0.249758
				0.24858
				0.250305
				0.213828
				0.25673
				0.249231
				0.249825
				0.251222
				0.249827
				0.249732
				0.250026
				0.25007
				0.250346
				0.249966
				0.23903
				0.249485
				0.249756
				0.249333
				0.250113
				0.249912
				0.249209
				0.251789
				0.249299
				0.225311
				0.250128
				0.251253
				0.252943
				0.2498
				0.251111
				0.249814
				0.250185
				0.250229
				0.263706
				0.256029
				0.254744
				0.249646
				0.249368
				0.249841
				0.249991
				0.25015
				0.249822
				0.242165
				0.263465
				0.250211
				0.244056
				0.250149
				0.249941
				0.246329
				0.252695
				0.255122
				0.247136
				0.24894
				0.249839
				0.247401
				0.249999
				0.2523
				0.249578
				0.249633
				0.249755
				0.250317
				0.250277
				0.24959
				0.250061
				0.249932
				0.250126
				0.252173
				0.257751
				0.252439
				0.248401
				0.250146
				0.251152
				0.250142
				0.258757
				0.257806
				0.249942
				0.205931
				0.250338
				0.24987
				0.25012
				0.25005
				0.250141
				0.250177
				0.250128
				0.249756
				0.250158
				0.218565
				0.249953
				0.25036
				0.242425
				0.252911
				0.255366
				0.250138
				0.249498
				0.226271
				0.250156
				0.250175
				0.261838
				0.250221
				0.250194
				0.250469
				0.24989
				0.250639
				0.249999
				0.25004
				0.244053
				0.249623
				0.249964
				0.25031
				0.25067
				0.249453
				0.250145
				0.250072
				0.250359
				0.245632
				0.252878
				0.256751
				0.249936
				0.249871
				0.250105
				0.25007
				0.250128
				0.251761
				0.248849
				0.217077
				0.250113
				0.248075
				0.250089
				0.250261
				0.249794
				0.25118
				0.249967
				0.250397
				0.241172
				0.250202
				0.248785
				0.250233
				0.26542
				0.250843
				0.249874
				0.249909
				0.223594
				0.250133
				0.249518
				0.249897
				0.245981
				0.250274
				0.250218
				0.250188
				0.249638
				0.248587
				0.248379
				0.255023
				0.246755
				0.255762
				0.250571
				0.249789
				0.250285
				0.250035
				0.250703
				0.25013
				0.250123
				0.244787
				0.242853
				0.250168
				0.25073
				0.249387
				0.249898
				0.249964
				0.246696
				0.249807
				0.24992
				0.250099
				0.244312
				0.250266
				0.250307
				0.250228
				0.249708
				0.24657
				0.249817
				0.223774
				0.248836
				0.25915
				0.248599
				0.248646
				0.250113
				0.261528
				0.250087
				0.250117
				0.249928
				0.250072
				0.250269
				0.25015
				0.242913
				0.250008
				0.248634
				0.250161
				0.249954
				0.249737
				0.250121
				0.252061
				0.247973
				0.254935
				0.249987
				0.250063
				0.254536
				0.24992
				0.249835
				0.249066
				0.235706
				0.250119
				0.250106
				0.250143
				0.249392
				0.249992
				0.250124
				0.24991
				0.250167
				0.243523
				0.246596
				0.249058
				0.248941
				0.249537
				0.248858
				0.249953
				0.249714
				0.250769
				0.250124
				0.250196
				0.249703
				0.250475
				0.249963
				0.253856
				0.250032
				0.250143
				0.250188
				0.249813
				0.250108
				0.246476
				0.201437
				0.252792
				0.249885
				0.250117
				0.249794
				0.25375
				0.253123
				0.249808
				0.249454
				0.249856
				0.232684
				0.240613
				0.245438
				0.250059
				0.250115
				0.249928
				0.250215
				0.249873
				0.248104
				0.250058
				0.249944
				0.253943
				0.250478
				0.25014
				0.23378
				0.244665
				0.248212
				0.249778
				0.249892
				0.250087
				0.248837
				0.250249
				0.251762
				0.244904
				0.249865
				0.263803
				0.249776
				0.250094
				0.20656
				0.250461
				0.250126
				0.250067
				0.250867
				0.234736
				0.250163
				0.250315
				0.250064
				0.250152
				0.253303
				0.250376
				0.249712
				0.250699
				0.24987
				0.250094
				0.250149
				0.249719
				0.251335
				0.189908
				0.2358
				0.241204
				0.249637
				0.249487
				0.21847
				0.229653
				0.250148
				0.218252
				0.250116
				0.240508
				0.249979
				0.231727
				0.249796
				0.250125
				0.256332
				0.249823
				0.250122
				0.250459
				0.249819
				0.233658
				0.250134
				0.249958
				0.239847
				0.250241
				0.250177
				0.253359
				0.249825
				0.254893
				0.25011
				0.257076
				0.250117
				0.250141
				0.250207
				0.251059
				0.265858
				0.260774
				0.250141
				0.250191
				0.249974
				0.250928
				0.250095
				0.252195
				0.255655
				0.24985
				0.249739
				0.250855
				0.249741
				0.250372
				0.250091
				0.250207
				0.25014
				0.251607
				0.249808
				0.249952
				0.258557
				0.235492
				0.250051
				0.250113
				0.25013
				0.249829
				0.250146
				0.249584
				0.262794
				0.2502
				0.250573
				0.250149
				0.25774
				0.25566
				0.248994
				0.250121
				0.221875
				0.248874
				0.249646
				0.259731
				0.258543
				0.229748
				0.250136
				0.214757
				0.230549
				0.250106
				0.249795
				0.249938
				0.250129
				0.249925
				0.255839
				0.250168
				0.249489
				0.250163
				0.25018
				0.249873
				0.249956
				0.250425
				0.249247
				0.250137
				0.246139
				0.250413
				0.249849
				0.249833
				0.250137
				0.251404
				0.252415
				0.244541
				0.250076
				0.249998
				0.197696
				0.247065
				0.249959
				0.250218
				0.249966
				0.247508
				0.206815
				0.251146
				0.234525
				0.249769
				0.250135
				0.250118
				0.250372
				0.249984
				0.249303
				0.250163
				0.245813
				0.247483
				0.249809
				0.190659
				0.250076
				0.207996
				0.250069
				0.249955
				0.255911
				0.215109
				0.250782
				0.251584
				0.25805
				0.251282
				0.244958
				0.250182
				0.249622
				0.267028
				0.251594
				0.253522
				0.267358
				0.249889
				0.250068
				0.250033
				0.2501
				0.24949
				0.248601
				0.253401
				0.24992
				0.24993
				0.250177
				0.254671
				0.249998
				0.250121
				0.256775
				0.249711
				0.257104
				0.260369
				0.253075
				0.252473
				0.250095
				0.249803
				0.249591
				0.250073
				0.247772
				0.253311
				0.247194
				0.219515
				0.249703
				0.24994
				0.252793
				0.256878
				0.250162
				0.203959
				0.250157
				0.242793
				0.249797
				0.237728
				0.215099
				0.25064
				0.250834
				0.227733
				0.250712
				0.250281
				0.235451
				0.249062
				0.238144
				0.250395
				0.249795
				0.250778
				0.253566
				0.250222
				0.250116
				0.23884
				0.245692
				0.248643
				0.249824
				0.250082
				0.255638
				0.250123
				0.249947
				0.249905
				0.219168
				0.250086
				0.246435
				0.223156
				0.251726
				0.247561
				0.251917
				0.250122
				0.261432
				0.248647
				0.249964
				0.248158
				0.249902
				0.249971
				0.250069
				0.250576
				0.250244
				0.250245
				0.250923
				0.249846
				0.249443
				0.250334
				0.250278
				0.247659
				0.239589
				0.250112
				0.262898
				0.251412
				0.25235
				0.250174
				0.250119
				0.25009
				0.249786
				0.249605
				0.247034
				0.24936
				0.248749
				0.249876
				0.250118
				0.224478
				0.249656
				0.249526
				0.249958
				0.250488
				0.250163
				0.260612
				0.250868
				0.249723
				0.25018
				0.248782
				0.241796
				0.232902
				0.250946
				0.249545
				0.250107
				0.248779
				0.224037
				0.250206
				0.250686
				0.250144
				0.250095
				0.253071
				0.266753
				0.250149
				0.253887
				0.24992
				0.250421
				0.250482
				0.249679
				0.249796
				0.245735
				0.249274
				0.250706
				0.250133
				0.250141
				0.25016
				0.250091
				0.259285
				0.244456
				0.250111
				0.264348
				0.249953
				0.257047
				0.249897
				0.249092
				0.248652
				0.251084
				0.241194
				0.249162
				0.25047
				0.250981
				0.250154
				0.249791
				0.249074
				0.257923
				0.250028
				0.249867
				0.251997
				0.249646
				0.251818
				0.24784
				0.248786
				0.250036
				0.250565
				0.255129
				0.249759
				0.250215
				0.249085
				0.249843
				0.249622
				0.254798
				0.24986
				0.250013
				0.249283
				0.261195
				0.250162
				0.250134
				0.25017
				0.250023
				0.245726
				0.25043
				0.249582
				0.25017
				0.251216
				0.250715
				0.250054
				0.25467
				0.249528
				0.250092
				0.249887
				0.249862
				0.247496
				0.247137
				0.251026
				0.25004
				0.250703
				0.257677
				0.250073
				0.250137
				0.250016
				0.249768
				0.249819
				0.250289
				0.205362
				0.257432
				0.250159
				0.250149
				0.249753
				0.249919
				0.250135
				0.250332
				0.207718
				0.208463
				0.249776
				0.249809
				0.250147
				0.220229
				0.250008
				0.250706
				0.250408
				0.259042
				0.249655
				0.249791
				0.249948
				0.250998
				0.249931
				0.25011
				0.250052
				0.234406
				0.244791
				0.23807
				0.24993
				0.247228
				0.249603
				0.24979
				0.240351
				0.213473
				0.250143
				0.252272
				0.250289
				0.250551
				0.239316
				0.250097
				0.250172
				0.247144
				0.238426
				0.250202
				0.230915
				0.227062
				0.250117
				0.250127
				0.251248
				0.249703
				0.251413
				0.250111
				0.240601
				0.24964
				0.248536
				0.23955
				0.249954
				0.250237
				0.24919
				0.245993
				0.249859
				0.2495
				0.250108
				0.247216
				0.250186
				0.247913
				0.254021
				0.249473
				0.24996
				0.249909
				0.250286
				0.249483
				0.248613
				0.243025
				0.258715
				0.252593
				0.250033
				0.249701
				0.249923
				0.250212
				0.251011
				0.250189
				0.250158
				0.257984
				0.25052
				0.250574
				0.249563
				0.249901
				0.252962
				0.249966
				0.249746
				0.249504
				0.249797
				0.250144
				0.25367
				0.250298
				0.252056
				0.250137
				0.23547
				0.249989
				0.249777
				0.250172
				0.24995
				0.249661
				0.249827
				0.250129
				0.249755
				0.250402
				0.24856
				0.250856
				0.250595
				0.24988
				0.25034
				0.24881
				0.250031
				0.249738
				0.245286
				0.249997
				0.250119
				0.249789
				0.25452
				0.246841
				0.250203
				0.23394
				0.255492
				0.249552
				0.25014
				0.250668
				0.250071
				0.250671
				0.24981
				0.235013
				0.253505
				0.250228
				0.249903
				0.249691
				0.248993
				0.25015
				0.237222
				0.238394
				0.250117
				0.250089
				0.265423
				0.25009
				0.25012
				0.250116
				0.250136
				0.249828
				0.250126
				0.250076
				0.249783
				0.249858
				0.249306
				0.245076
				0.204759
				0.254882
				0.249832
				0.250117
				0.24906
				0.251105
				0.249663
				0.249979
				0.215943
				0.249895
				0.250257
				0.256586
				0.250117
				0.250165
				0.227505
				0.250187
				0.250083
				0.250073
				0.250122
				0.25192
				0.250153
				0.222834
				0.249694
				0.24852
				0.242274
				0.249068
				0.244974
				0.246106
				0.255161
				0.249907
				0.247605
				0.250116
				0.250221
				0.251612
				0.250086
				0.249228
				0.249378
				0.254198
				0.254543
				0.2489
				0.25014
				0.250159
				0.251142
				0.251827
				0.224305
				0.250111
				0.258405
				0.224145
				0.249704
				0.250139
				0.250253
				0.249556
				0.229443
				0.249425
				0.249801
				0.252497
				0.250165
				0.250303
				0.249588
				0.250486
				0.24974
				0.236467
				0.249472
				0.250023
				0.251888
				0.249598
				0.250062
				0.249943
				0.249859
				0.249849
				0.250587
				0.250981
				0.250115
				0.252375
				0.250157
				0.250063
				0.249755
				0.25709
				0.25653
				0.250129
				0.251339
				0.249925
				0.24929
				0.250344
				0.249185
				0.2501
				0.249391
				0.250157
				0.250093
				0.250124
				0.251349
				0.250166
				0.249775
				0.2497
				0.248015
				0.244613
				0.250119
				0.249865
				0.252806
				0.250408
				0.246564
				0.250199
				0.250129
				0.250106
				0.250572
				0.250353
				0.248224
				0.246828
				0.250208
				0.250025
				0.247724
				0.250331
				0.249777
				0.249994
				0.249913
				0.252201
				0.250106
				0.250103
				0.242731
				0.249857
				0.24994
				0.250456
				0.249848
				0.249394
				0.253664
				0.249874
				0.249891
				0.263526
				0.250154
				0.249886
				0.250401
				0.255549
				0.231936
				0.250117
				0.250116
				0.248561
				0.249142
				0.249997
				0.249827
				0.241223
				0.252066
				0.250262
				0.250822
				0.249993
				0.249807
				0.251009
				0.250161
				0.250301
				0.246471
				0.249813
				0.249163
				0.250133
				0.250078
				0.249983
				0.254795
				0.250699
				0.244843
				0.250583
				0.257808
				0.250101
				0.250369
				0.249964
				0.191081
				0.249952
				0.249792
				0.250123
				0.261249
				0.249961
				0.249947
				0.248752
				0.247995
				0.243612
				0.249962
				0.250017
				0.250014
				0.229394
				0.250115
				0.247061
				0.24946
				0.249912
				0.213497
				0.249973
				0.250128
				0.250197
				0.250151
				0.25517
				0.251033
				0.249887
				0.25151
				0.250381
				0.249954
				0.238602
				0.252386
				0.248947
				0.251713
				0.24913
				0.250275
				0.255846
				0.250207
				0.249491
				0.249382
				0.250117
				0.24978
				0.250145
				0.250104
				0.249681
				0.249827
				0.249833
				0.241694
				0.250926
				0.266529
				0.249858
				0.250635
				0.249757
				0.252122
				0.249953
				0.250122
				0.257604
				0.250553
				0.249711
				0.250149
				0.248841
				0.22009
				0.250082
				0.249706
				0.250193
				0.249896
				0.251077
				0.249338
				0.249425
				0.252199
				0.250212
				0.249641
				0.25016
				0.250354
				0.249796
				0.247266
				0.250286
				0.25014
				0.24275
				0.249836
				0.250058
				0.244068
				0.250418
				0.250031
				0.245678
				0.249649
				0.250121
				0.25027
				0.255507
				0.249818
				0.249858
				0.243002
				0.249642
				0.2493
				0.249944
				0.254954
				0.250138
				0.251911
				0.249843
				0.248536
				0.250118
				0.24844
				0.256848
				0.234821
				0.228138
				0.249991
				0.249707
				0.25012
				0.250031
				0.250122
				0.2491
				0.251471
				0.22644
				0.249833
				0.228124
				0.244628
				0.250067
				0.250058
				0.24936
				0.250076
				0.249925
				0.250073
				0.250403
				0.249863
				0.250277
				0.250018
				0.24974
				0.249676
				0.249984
				0.263574
				0.25056
				0.250139
				0.251338
				0.250126
				0.250061
				0.249205
				0.24982
				0.250235
				0.250158
				0.251203
				0.249652
				0.249243
				0.250167
				0.25704
				0.249906
				0.250151
				0.249873
				0.250098
				0.247628
				0.254274
				0.250317
				0.250157
				0.249272
				0.240029
				0.249733
				0.249825
				0.25014
				0.251888
				0.247231
				0.249048
				0.259188
				0.250277
				0.249738
				0.250048
				0.25016
				0.245891
				0.245704
				0.250569
				0.250003
				0.233899
				0.249887
				0.243939
				0.249044
				0.249812
				0.253632
				0.24717
				0.250548
				0.249997
				0.24996
				0.250239
				0.248768
				0.250741
				0.250061
				0.25021
				0.250181
				0.250078
				0.249801
				0.249779
				0.249587
				0.246104
				0.249714
				0.249747
				0.249202
				0.250098
				0.249935
				0.232433
				0.250143
				0.250301
				0.251883
				0.254921
				0.249267
				0.252194
				0.250306
				0.249965
				0.249951
				0.249902
				0.250479
				0.250133
				0.256977
				0.249799
				0.249893
				0.249918
				0.25231
				0.250118
				0.250236
				0.249606
				0.242442
				0.250139
				0.251329
				0.251198
				0.24914
				0.249806
				0.250141
				0.250222
				0.250545
				0.250101
				0.250011
				0.250353
				0.250176
				0.252551
				0.249942
				0.249898
				0.250157
				0.227784
				0.265439
				0.251891
				0.243388
				0.248142
				0.247633
				0.250115
				0.25029
				0.250023
				0.249816
				0.249915
				0.250148
				0.250161
				0.250089
				0.231463
				0.250371
				0.252897
				0.250202
				0.24999
				0.251038
				0.237722
				0.198029
				0.248529
				0.249937
				0.250171
				0.249805
				0.249226
				0.25013
				0.250147
				0.25128
				0.253404
				0.249998
				0.250157
				0.24916
				0.25016
				0.250163
				0.250397
				0.250271
				0.21242
				0.250097
				0.24809
				0.250363
				0.242479
				0.250874
				0.230797
				0.250164
				0.259301
				0.250052
				0.250257
				0.250115
				0.249586
				0.256482
				0.250899
				0.244087
				0.250446
				0.25011
				0.252831
				0.2502
				0.257422
				0.245882
				0.242271
				0.250849
				0.250471
				0.249481
				0.24992
				0.250009
				0.253164
				0.249789
				0.245796
				0.249736
				0.249718
				0.249556
				0.249606
				0.249841
				0.24998
				0.250276
				0.250129
				0.246609
				0.249094
				0.251694
				0.240844
				0.249474
				0.251257
				0.250521
				0.249827
				0.249655
				0.250138
				0.246275
				0.248332
				0.252536
				0.253743
				0.249887
				0.250104
				0.248005
				0.249087
				0.251578
				0.249811
				0.250213
				0.250178
				0.25378
				0.240773
				0.250063
				0.249378
				0.249258
				0.248284
				0.250144
				0.259386
				0.250311
				0.250153
				0.25017
				0.250069
				0.249641
				0.236043
				0.250153
				0.248973
				0.25615
				0.24978
				0.250124
				0.250322
				0.245919
				0.250173
				0.249924
				0.250153
				0.250282
				0.249499
				0.257525
				0.192824
				0.250129
				0.249369
				0.251967
				0.250247
				0.250569
				0.252588
				0.250127
				0.249906
				0.24928
				0.248702
				0.248251
				0.25025
				0.250295
				0.262996
				0.250142
				0.239981
				0.250155
				0.249833
				0.249887
				0.250103
				0.250106
				0.254149
				0.249618
				0.265478
				0.253707
				0.250187
				0.252271
				0.249691
				0.209663
				0.250271
				0.250072
				0.2654
				0.250031
				0.25016
				0.250049
				0.249898
				0.250085
				0.249637
				0.250044
				0.221935
				0.250117
				0.259402
				0.249176
				0.258169
				0.250237
				0.238609
				0.250339
				0.248628
				0.250107
				0.248454
				0.24831
				0.24992
				0.250091
				0.252924
				0.221219
				0.25008
				0.250563
				0.25092
				0.250195
				0.249819
				0.250048
				0.250106
				0.250109
				0.249789
				0.247169
				0.250157
				0.250014
				0.250061
				0.249869
			</DataArray>
			<DataArray type="Float64" Name="mach-number" Format="ascii">
				0.036744
				0.871411
				0.0317581
				0.751178
				0.379466
				0.378514
				0.0712993
				0.109218
				0.150991
				0.203003
				0.264226
				0.328286
				0.392605
				0.458541
				0.526488
				0.594865
				0.66352
				0.726424
				0.783304
				0.835163
				0.865515
				0.860285
				0.830061
				0.795061
				0.759773
				0.703822
				0.639031
				0.577847
				0.51655
				0.454351
				0.391187
				0.327609
				0.266729
				0.201588
				0.135879
				0.0735371
				0.0570788
				0.110169
				0.167563
				0.22856
				0.292145
				0.356345
				0.417454
				0.473318
				0.527069
				0.581577
				0.632076
				0.671129
				0.706226
				0.737785
				0.75086
				0.747124
				0.72492
				0.679337
				0.626907
				0.566649
				0.503406
				0.435458
				0.367695
				0.300356
				0.232927
				0.16868
				0.113793
				0.0690699
				0.0337036
				0.0139565
				0.379406
				0.379361
				0.379362
				0.379316
				0.379312
				0.379332
				0.379364
				0.37939
				0.379429
				0.379482
				0.379537
				0.379613
				0.379699
				0.379746
				0.379829
				0.3799
				0.379963
				0.380031
				0.380094
				0.380124
				0.380155
				0.380121
				0.380159
				0.380191
				0.380178
				0.380207
				0.380322
				0.380433
				0.380277
				0.379708
				0.378933
				0.379084
				0.38022
				0.380593
				0.380666
				0.38058
				0.380498
				0.380446
				0.380388
				0.380298
				0.380206
				0.380208
				0.380274
				0.380328
				0.380385
				0.380438
				0.380465
				0.380543
				0.380538
				0.380554
				0.380523
				0.380465
				0.380387
				0.380299
				0.380214
				0.380115
				0.379991
				0.379887
				0.379788
				0.379695
				0.379608
				0.379532
				0.37875
				0.38171
				0.378988
				0.379602
				0.383605
				0.379026
				0.378292
				0.376533
				0.380693
				0.377894
				0.387364
				0.38514
				0.369744
				0.379947
				0.369937
				0.379719
				0.377714
				0.405947
				0.386057
				0.351345
				0.374807
				0.394212
				0.356304
				0.356059
				0.419062
				0.381878
				0.448863
				0.381886
				0.404584
				0.271993
				0.351212
				0.414485
				0.32682
				0.309774
				0.412353
				0.357979
				0.378727
				0.379877
				0.379627
				0.381933
				0.445867
				0.324512
				0.38386
				0.519947
				0.379287
				0.445655
				0.489326
				0.414615
				0.390705
				0.580518
				0.379597
				0.396536
				0.222581
				0.318897
				0.349181
				0.235021
				0.235752
				0.376289
				0.382375
				0.381123
				0.377865
				0.37995
				0.382231
				0.381525
				0.381208
				0.381922
				0.379793
				0.380351
				0.379615
				0.379614
				0.185065
				0.475302
				0.378621
				0.40234
				0.37786
				0.383156
				0.388851
				0.371571
				0.372363
				0.379302
				0.379181
				0.366337
				0.600174
				0.380343
				0.379798
				0.378166
				0.378855
				0.385252
				0.3792
				0.374093
				0.380762
				0.378164
				0.30673
				0.408062
				0.38598
				0.43298
				0.382337
				0.274922
				0.375199
				0.378298
				0.531501
				0.347589
				0.383043
				0.549487
				0.416712
				0.503189
				0.176096
				0.381928
				0.671374
				0.378131
				0.368344
				0.379839
				0.362861
				0.377669
				0.398617
				0.377682
				0.273301
				0.377533
				0.38833
				0.392892
				0.380012
				0.421532
				0.371037
				0.167336
				0.382288
				0.595648
				0.446369
				0.379736
				0.375446
				0.38414
				0.381217
				0.379164
				0.384414
				0.34583
				0.379395
				0.379998
				0.392097
				0.378765
				0.381515
				0.37417
				0.384157
				0.357055
				0.388225
				0.378672
				0.37926
				0.38231
				0.382411
				0.379753
				0.418268
				0.381316
				0.399925
				0.381494
				0.382418
				0.333594
				0.377741
				0.379308
				0.378101
				0.703187
				0.557694
				0.380674
				0.383041
				0.379284
				0.515274
				0.379681
				0.379683
				0.382202
				0.379035
				0.38815
				0.42571
				0.379726
				0.379324
				0.303052
				0.374678
				0.380066
				0.0908236
				0.226729
				0.379622
				0.377795
				0.380479