<VTKFile type="UnstructuredGrid" version="0.1" byte_order="LittleEndian">
<UnstructuredGrid>
	<Piece NumberOfPoints="80" NumberOfCells="128">
		<CellData Scalars="density" Vectors="velocity">
			<DataArray type="Float64" Name="density" Format="ascii">
				0.992296
				0.954566
				0.977221
				0.979116
				0.922132
				0.980839
				0.856857
				0.947191
				0.852412
				0.921244
				0.931123
				0.945344
				1.02102
				0.993509
				1.07561
				1.03172
				1.07559
				1.04653
				1.02088
				1.03164
				0.930766
				0.993332
				0.851616
				0.94496
				0.855767
				0.920545
				0.921396
				0.946378
				0.97902
				0.979908
				0.901906
				0.972916
				0.985813
				0.928562
				0.997433
				1.00237
				0.992941
				0.988074
				0.98852
				0.980524
				0.991057
				0.978205
				0.999756
				0.989134
				1.00884
				1.00639
				1.01425
				1.01854
				1.01424
				1.01765
				1.0088
				1.01851
				0.999684
				1.00632
				0.990965
				0.989009
				0.988442
				0.978051
				0.992927
				0.980436
				0.997303
				0.988086
				0.986431
				1.00548
				0.994287
				0.997809
				1.00049
				0.999852
				0.997908
				0.999979
				0.996341
				0.998707
				0.99744
				0.998231
				1.00057
				0.999108
				1.00369
				1.00075
				1.00554
				1.00193
				1.00554
				1.00208
				1.00368
				1.00193
				1.00056
				1.00074
				0.997442
				0.999112
				0.996372
				0.998254
				0.997977
				0.998772
				1.00043
				1.00013
				0.994369
				0.999766
				0.997635
				0.989638
				0.999089
				1.00117
				0.999531
				0.998688
				0.999785
				0.999145
				1.00017
				0.999771
				1.00061
				1.00051
				1.00095
				1.0011
				1.00115
				1.00139
				1.00115
				1.00133
				1.00096
				1.00139
				1.00063
				1.00112
				1.0002
				1.00053
				0.999818
				0.999806
				0.999574
				0.999196
				0.999119
				0.998765
				0.997165
				1.00164
			</DataArray>
			<DataArray type="Float64" Name="mach-number" Format="ascii">
				0.0820416
				0.0734288
				0.262917
				0.210655
				0.45664
				0.367607
				0.619436
				0.502247
				0.648743
				0.565408
				0.51883
				0.518569
				0.332719
				0.404218
				0.151222
				0.282643
				0.151465
				0.247526
				0.333119
				0.282883
				0.519536
				0.404617
				0.650164
				0.519235
				0.621457
				0.566505
				0.458667
				0.503568
				0.2651
				0.368775
				0.0965891
				0.216347
				0.301583
				0.153523
				0.385519
				0.360264
				0.40793
				0.403925
				0.416777
				0.432438
				0.408732
				0.439179
				0.383323
				0.413358
				0.356782
				0.367964
				0.343074
				0.332766
				0.34313
				0.33745
				0.356922
				0.332887
				0.383541
				0.368205
				0.408999
				0.413727
				0.416981
				0.439598
				0.407917
				0.432689
				0.385421
				0.403792
				0.301464
				0.361468
				0.334354
				0.321999
				0.380106
				0.376929
				0.385892
				0.382337
				0.389957
				0.385063
				0.387771
				0.38589
				0.379783
				0.382364
				0.371258
				0.377248
				0.365572
				0.373766
				0.365594
				0.375248
				0.3713
				0.373773
				0.379828
				0.377255
				0.387787
				0.382356
				0.389882
				0.385837
				0.38567
				0.38492
				0.379732
				0.382053
				0.337511
				0.376644
				0.376366
				0.325759
				0.383583
				0.396772
				0.382706
				0.384098
				0.381908
				0.383468
				0.380723
				0.381999
				0.379548
				0.380292
				0.378737
				0.378988
				0.378401
				0.378553
				0.378395
				0.379732
				0.378719
				0.378547
				0.379514
				0.378966
				0.380669
				0.380247
				0.381831
				0.381918
				0.382606
				0.383342
				0.383519
				0.383866
				0.375023
				0.397773
			</DataArray>
			<DataArray type="Float64" Name="pressure" Format="ascii">
				5.0307
				5.00429
				4.8841
				4.96454
				4.49255
				4.88201
				4.04157
				4.61793
				3.99423
				4.44236
				4.4902
				4.60542
				5.08346
				4.92861
				5.46726
				5.17835
				5.46699
				5.24984
				5.08244
				5.17787
				4.48779
				4.92747
				3.9891
				4.60302
				4.03445
				4.43807
				4.48654
				4.61321
				4.88063
				4.87926
				5.05357
				4.95329
				4.95503
				4.95569
				4.93366
				4.94342
				4.89232
				4.87085
				4.86081
				4.81183
				4.87899
				4.79472
				4.94178
				4.86931
				5.00709
				4.98898
				5.04649
				5.0747
				5.04639
				5.08773
				5.00679
				5.07448
				4.94127
				4.98847
				4.87832
				4.86844
				4.86022
				4.79372
				4.89222
				4.81141
				4.93416
				4.87162
				4.95059
				4.9459
				4.95622
				4.97332
				4.94944
				4.95216
				4.93146
				4.94576
				4.92107
				4.93807
				4.92884
				4.93494
				4.95057
				4.94083
				4.9722
				4.95189
				4.98503
				4.95985
				4.98501
				4.96088
				4.97214
				4.95984
				4.9505
				4.95187
				4.92884
				4.94086
				4.92129
				4.9351
				4.93198
				4.93849
				4.9497
				4.94662
				4.95197
				4.95348
				4.93842
				4.93437
				4.94034
				4.94236
				4.94336
				4.93718
				4.94506
				4.94065
				4.94775
				4.94501
				4.95081
				4.95012
				4.95315
				4.95424
				4.95456
				4.9562
				4.95458
				4.95591
				4.9532
				4.95624
				4.95091
				4.95431
				4.94791
				4.95027
				4.94528
				4.94525
				4.94367
				4.941
				4.94053
				4.93764
				4.93787
				4.94343
			</DataArray>
			<DataArray type="Float64" Name="velocity" NumberOfComponents="3" Format="ascii">
				0.211814 -0.0539261 0.0 
				0.198663 0.0102836 0.0 
				0.605307 -0.342464 0.0 
				0.541693 -0.146878 0.0 
				1.12627 -0.392117 0.0 
				0.940454 -0.239186 0.0 
				1.58718 -0.120884 0.0 
				1.30332 -0.152053 0.0 
				1.61892 0.374223 0.0 
				1.46437 0.117523 0.0 
				1.16449 0.679188 0.0 
				1.29343 0.401399 0.0 
				0.635775 0.606148 0.0 
				0.953168 0.475661 0.0 
				0.31926 0.246586 0.0 
				0.680456 0.313581 0.0 
				0.319462 -0.247377 0.0 
				0.655968 -0.000324432 0.0 
				0.636359 -0.607026 0.0 
				0.680846 -0.31423 0.0 
				1.16592 -0.680172 0.0 
				0.954029 -0.476227 0.0 
				1.62221 -0.374819 0.0 
				1.29512 -0.401573 0.0 
				1.5919 0.122061 0.0 
				1.46716 -0.116539 0.0 
				1.13046 0.395222 0.0 
				1.30638 0.154683 0.0 
				0.608196 0.34726 0.0 
				0.942851 0.243019 0.0 
				0.262645 0.0648265 0.0 
				0.56073 0.138558 0.0 
				0.797539 -0.0628729 0.0 
				0.419622 0.00460924 0.0 
				1.01262 -0.0618321 0.0 
				0.943369 -0.0786168 0.0 
				1.07021 -0.0500257 0.0 
				1.05798 -0.0817592 0.0 
				1.09352 -0.00364845 0.0 
				1.13277 -0.0401059 0.0 
				1.0712 0.0628835 0.0 
				1.14957 0.0452576 0.0 
				1.00405 0.0933703 0.0 
				1.07711 0.131998 0.0 
				0.937801 0.0708679 0.0 
				0.958702 0.143447 0.0 
				0.905239 0.0204009 0.0 
				0.875172 0.0804155 0.0 
				0.905381 -0.0205895 0.0 
				0.892766 -0.000191252 0.0 
				0.938155 -0.0709803 0.0 
				0.875454 -0.0807763 0.0 
				1.00461 -0.0932992 0.0 
				0.95929 -0.143702 0.0 
				1.07191 -0.0624262 0.0 
				1.07807 -0.131888 0.0 
				1.09403 0.00474217 0.0 
				1.15068 -0.0443144 0.0 
				1.0701 0.051611 0.0 
				1.13336 0.0420259 0.0 
				1.0124 0.0631052 0.0 
				1.05752 0.0842568 0.0 
				0.796257 0.0672012 0.0 
				0.945087 0.0812315 0.0 
				0.883257 0.00321923 0.0 
				0.850585 0.00193451 0.0 
				1.00029 -0.00857946 0.0 
				0.992529 0.00657493 0.0 
				1.01499 -0.00697617 0.0 
				1.00607 0.00366406 0.0 
				1.0254 0.00721336 0.0 
				1.01307 0.00845613 0.0 
				1.01957 0.0268847 0.0 
				1.01503 0.0187351 0.0 
				0.998909 0.0356555 0.0 
				1.00578 0.0249014 0.0 
				0.977288 0.0290334 0.0 
				0.992666 0.0224379 0.0 
				0.963026 0.0118538 0.0 
				0.983872 0.0133593 0.0 
				0.963084 -0.0118112 0.0 
				0.987892 2.76633e-05 0.0 
				0.977399 -0.0289264 0.0 
				0.983893 -0.0132834 0.0 
				0.999035 -0.0354273 0.0 
				0.992689 -0.0223123 0.0 
				1.01962 -0.0264808 0.0 
				1.00576 -0.0246992 0.0 
				1.02522 -0.00662376 0.0 
				1.0149 -0.0184503 0.0 
				1.01442 0.00762364 0.0 
				1.01271 -0.00808356 0.0 
				0.999351 0.00919233 0.0 
				1.00534 -0.00305823 0.0 
				0.891166 -0.00547988 0.0 
				0.991964 -0.00486836 0.0 
				0.990757 -0.00842639 0.0 
				0.860672 -9.90558e-05 0.0 
				1.00925 -0.00278005 0.0 
				1.04307 0.00439406 0.0 
				1.00703 -0.000631725 0.0 
				1.01049 0.000303672 0.0 
				1.00497 0.001507 0.0 
				1.00895 0.00385587 0.0 
				1.00193 0.0027732 0.0 
				1.0052 0.00561009 0.0 
				0.998928 0.00280903 0.0 
				1.00086 0.00549481 0.0 
				0.996865 0.00171583 0.0 
				0.99755 0.00378369 0.0 
				0.996023 0.000288399 0.0 
				0.996469 0.00140921 0.0 
				0.996006 -0.000232121 0.0 
				0.999571 4.21408e-05 0.0 
				0.996818 -0.00166259 0.0 
				0.996454 -0.00131657 0.0 
				0.998841 -0.00276493 0.0 
				0.997496 -0.00367598 0.0 
				1.00179 -0.00275334 0.0 
				1.00074 -0.00537621 0.0 
				1.00478 -0.00154266 0.0 
				1.00499 -0.00550606 0.0 
				1.00678 0.000492537 0.0 
				1.00862 -0.0038 0.0 
				1.00908 0.00244701 0.0 
				1.00988 -0.000221079 0.0 
				0.987391 0.00929163 0.0 
				1.04557 -0.00513831 0.0 
			</DataArray>
		</CellData>
		<Points>
		<DataArray type="Float64" NumberOfComponents="3" Format="ascii">
			0.5 0 0.0 
			0.46194 0.191342 0.0 
			0.353553 0.353553 0.0 
			0.191342 0.46194 0.0 
			-2.18557e-08 0.5 0.0 
			-0.191342 0.46194 0.0 
			-0.353553 0.353553 0.0 
			-0.46194 0.191342 0.0 
			-0.5 -4.37114e-08 0.0 
			-0.46194 -0.191342 0.0 
			-0.353553 -0.353553 0.0 
			-0.191342 -0.46194 0.0 
			6.55671e-08 -0.5 0.0 
			0.191342 -0.46194 0.0 
			0.353553 -0.353553 0.0 
			0.46194 -0.191342 0.0 
			0.884503 0.175939 0.0 
			0.749846 0.501031 0.0 
			0.501031 0.749846 0.0 
			0.175939 0.884503 0.0 
			-0.175939 0.884503 0.0 
			-0.501031 0.749846 0.0 
			-0.749846 0.501031 0.0 
			-0.884503 0.175939 0.0 
			-0.884503 -0.175939 0.0 
			-0.749846 -0.501031 0.0 
			-0.501031 -0.749846 0.0 
			-0.175939 -0.884503 0.0 
			0.175939 -0.884503 0.0 
			0.501031 -0.749846 0.0 
			0.749846 -0.501031 0.0 
			0.884503 -0.175938 0.0 
			2.20148 0 0.0 
			2.0339 0.842468 0.0 
			1.55668 1.55668 0.0 
			0.842468 2.0339 0.0 
			-9.62295e-08 2.20148 0.0 
			-0.842468 2.0339 0.0 
			-1.55668 1.55668 0.0 
			-2.0339 0.842468 0.0 
			-2.20148 -1.92459e-07 0.0 
			-2.0339 -0.842468 0.0 
			-1.55668 -1.55668 0.0 
			-0.842468 -2.0339 0.0 
			2.88689e-07 -2.20148 0.0 
			0.842468 -2.0339 0.0 
			1.55668 -1.55668 0.0 
			2.0339 -0.842468 0.0 
			6.28184 1.24954 0.0 
			5.32549 3.55838 0.0 
			3.55838 5.32549 0.0 
			1.24954 6.28184 0.0 
			-1.24954 6.28184 0.0 
			-3.55838 5.32549 0.0 
			-5.32549 3.55838 0.0 
			-6.28184 1.24954 0.0 
			-6.28184 -1.24954 0.0 
			-5.32549 -3.55838 0.0 
			-3.55838 -5.32549 0.0 
			-1.24954 -6.28184 0.0 
			1.24954 -6.28184 0.0 
			3.55838 -5.32549 0.0 
			5.32549 -3.55838 0.0 
			6.28184 -1.24953 0.0 
			20.0001 0 0.0 
			18.4777 7.6537 0.0 
			14.1422 14.1422 0.0 
			7.6537 18.4777 0.0 
			-8.74231e-07 20.0001 0.0 
			-7.6537 18.4777 0.0 
			-14.1422 14.1422 0.0 
			-18.4777 7.65369 0.0 
			-20.0001 -1.74846e-06 0.0 
			-18.4777 -7.6537 0.0 
			-14.1422 -14.1422 0.0 
			-7.65369 -18.4777 0.0 
			2.62269e-06 -20.0001 0.0 
			7.6537 -18.4777 0.0 
			14.1422 -14.1422 0.0 
			18.4777 -7.65369 0.0 
		</DataArray>
		</Points>
		<Cells>
			<DataArray type="UInt32" Name="connectivity" Format="ascii">
				0 16 1 
				0 31 16 
				1 17 2 
				1 16 17 
				2 18 3 
				2 17 18 
				3 19 4 
				3 18 19 
				4 20 5 
				4 19 20 
				5 21 6 
				5 20 21 
				6 22 7 
				6 21 22 
				7 23 8 
				7 22 23 
				8 24 9 
				8 23 24 
				9 25 10 
				9 24 25 
				10 26 11 
				10 25 26 
				11 27 12 
				11 26 27 
				12 28 13 
				12 27 28 
				13 29 14 
				13 28 29 
				14 30 15 
				14 29 30 
				15 31 0 
				15 30 31 
				16 32 33 
				16 31 32 
				17 33 34 
				17 16 33 
				18 34 35 
				18 17 34 
				19 35 36 
				19 18 35 
				20 36 37 
				20 19 36 
				21 37 38 
				21 20 37 
				22 38 39 
				22 21 38 
				23 39 40 
				23 22 39 
				24 40 41 
				24 23 40 
				25 41 42 
				25 24 41 
				26 42 43 
				26 25 42 
				27 43 44 
				27 26 43 
				28 44 45 
				28 27 44 
				29 45 46 
				29 28 45 
				30 46 47 
				30 29 46 
				31 47 32 
				31 30 47 
				32 48 33 
				32 63 48 
				33 49 34 
				33 48 49 
				34 50 35 
				34 49 50 
				35 51 36 
				35 50 51 
				36 52 37 
				36 51 52 
				37 53 38 
				37 52 53 
				38 54 39 
				38 53 54 
				39 55 40 
				39 54 55 
				40 56 41 
				40 55 56 
				41 57 42 
				41 56 57 
				42 58 43 
				42 57 58 
				43 59 44 
				43 58 59 
				44 60 45 
				44 59 60 
				45 61 46 
				45 60 61 
				46 62 47 
				46 61 62 
				47 63 32 
				47 62 63 
				48 64 65 
				48 63 64 
				49 65 66 
				49 48 65 
				50 66 67 
				50 49 66 
				51 67 68 
				51 50 67 
				52 68 69 
				52 51 68 
				53 69 70 
				53 52 69 
				54 70 71 
				54 53 70 
				55 71 72 
				55 54 71 
				56 72 73 
				56 55 72 
				57 73 74 
				57 56 73 
				58 74 75 
				58 57 74 
				59 75 76 
				59 58 75 
				60 76 77 
				60 59 76 
				61 77 78 
				61 60 77 
				62 78 79 
				62 61 78 
				63 79 64 
				63 62 79 
			</DataArray>
			<DataArray type="UInt32" Name="offsets" Format="ascii">
				3
				6
				9
				12
				15
				18
				21
				24
				27
				30
				33
				36
				39
				42
				45
				48
				51
				54
				57
				60
				63
				66
				69
				72
				75
				78
				81
				84
				87
				90
				93
				96
				99
				102
				105
				108
				111
				114
				117
				120
				123
				126
				129
				132
				135
				138
				141
				144
				147
				150
				153
				156
				159
				162
				165
				168
				171
				174
				177
				180
				183
				186
				189
				192
				195
				198
				201
				204
				207
				210
				213
				216
				219
				222
				225
				228
				231
				234
				237
				240
				243
				246
				249
				252
				255
				258
				261
				264
				267
				270
				273
				276
				279
				282
				285
				288
				291
				294
				297
				300
				303
				306
				309
				312
				315
				318
				321
				324
				327
				330
				333
				336
				339
				342
				345
				348
				351
				354
				357
				360
				363
				366
				369
				372
				375
				378
				381
				384
			</DataArray>
			<DataArray type="Int32" Name="types" Format="ascii">
				5
				5
				5
				5
				5
				5
				5
				5
				5
				5
				5
				5
				5
				5
				5
				5
				5
				5
				5
				5
				5
				5
				5
				5
				5
				5
				5
				5
				5
				5
				5
				5
				5
				5
				5
				5
				5
				5
				5
				5
				5
				5
				5
				5
				5
				5
				5
				5
				5
				5
				5
				5
				5
				5
				5
				5
				5
				5
				5
				5
				5
				5
				5
				5
				5
				5
				5
				5
				5
				5
				5
				5
				5
				5
				5
				5
				5
				5
				5
				5
				5
				5
				5
				5
				5
				5
				5
				5
				5
				5
				5
				5
				5
				5
				5
				5
				5
				5
				5
				5
				5
				5
				5
				5
				5
				5
				5
				5
				5
				5
				5
				5
				5
				5
				5
				5
				5
				5
				5
				5
				5
				5
				5
				5
				5
				5
				5
				5
			</DataArray>
		</Cells>
	</Piece>
</UnstructuredGrid>
</VTKFile>