<VTKFile type="UnstructuredGrid" version="0.1" byte_order="LittleEndian">
<UnstructuredGrid>
	<Piece NumberOfPoints="80" NumberOfCells="128">
		<CellData Scalars="density" Vectors="velocity">
			<DataArray type="Float64" Name="density" Format="ascii">
				-nan
				-nan
				-nan
				-nan
				-nan
				-nan
				-nan
				1.10503
				-nan
				-nan
				-nan
				-nan
				1.18023
				1.12552
				1.20256
				1.1372
				1.20256
				1.1397
				1.18023
				1.1372
				1.15264
				1.12552
				1.12891
				1.11679
				1.10857
				1.1118
				-nan
				1.10503
				-nan
				-nan
				-nan
				-nan
				-nan
				-nan
				-nan
				-nan
				-nan
				-nan
				-nan
				1.09781
				-nan
				-nan
				-nan
				-nan
				1.14443
				1.10415
				1.15267
				1.1137
				1.15267
				1.12225
				1.14443
				1.1137
				1.13688
				1.10415
				-nan
				1.09885
				-nan
				1.09747
				-nan
				1.09781
				-nan
				-nan
				-nan
				-nan
				-nan
				-nan
				-nan
				-nan
				-nan
				-nan
				-nan
				-nan
				-nan
				-nan
				-nan
				-nan
				1.1467
				1.11838
				1.16123
				1.12996
				1.16123
				1.13427
				1.1467
				1.12996
				1.13584
				1.11838
				-nan
				1.11139
				-nan
				-nan
				-nan
				-nan
				-nan
				-nan
				-nan
				-nan
				-nan
				-nan
				-nan
				-nan
				-nan
				-nan
				-nan
				-nan
				-nan
				-nan
				-nan
				-nan
				1.11498
				1.10292
				1.12165
				1.11291
				1.12165
				1.12362
				1.11498
				1.11291
				1.10991
				1.10292
				-nan
				1.09736
				-nan
				-nan
				-nan
				-nan
				-nan
				-nan
				-nan
				-nan
			</DataArray>
			<DataArray type="Float64" Name="mach-number" Format="ascii">
				-nan
				-nan
				-nan
				-nan
				-nan
				-nan
				-nan
				0.373058
				-nan
				-nan
				-nan
				-nan
				0.373053
				0.393734
				0.369321
				0.400807
				0.369321
				0.404047
				0.373053
				0.400807
				0.377847
				0.393734
				0.380491
				0.386186
				0.378495
				0.378505
				-nan
				0.373058
				-nan
				-nan
				-nan
				-nan
				-nan
				-nan
				-nan
				-nan
				-nan
				-nan
				-nan
				0.379379
				-nan
				-nan
				-nan
				-nan
				0.383148
				0.381425
				0.384045
				0.382302
				0.384045
				0.382803
				0.383148
				0.382302
				0.381831
				0.381425
				-nan
				0.380621
				-nan
				0.379922
				-nan
				0.379379
				-nan
				-nan
				-nan
				-nan
				-nan
				-nan
				-nan
				-nan
				-nan
				-nan
				-nan
				-nan
				-nan
				-nan
				-nan
				-nan
				0.390044
				0.389924
				0.392892
				0.3951
				0.392892
				0.397441
				0.390044
				0.3951
				0.386106
				0.389924
				-nan
				0.384939
				-nan
				-nan
				-nan
				-nan
				-nan
				-nan
				-nan
				-nan
				-nan
				-nan
				-nan
				-nan
				-nan
				-nan
				-nan
				-nan
				-nan
				-nan
				-nan
				-nan
				0.377002
				0.381011
				0.375478
				0.381594
				0.375478
				0.381928
				0.377002
				0.381594
				0.378332
				0.381011
				-nan
				0.38048
				-nan
				-nan
				-nan
				-nan
				-nan
				-nan
				-nan
				-nan
			</DataArray>
			<DataArray type="Float64" Name="pressure" Format="ascii">
				-nan
				-nan
				-nan
				-nan
				-nan
				-nan
				-nan
				5.46745
				-nan
				-nan
				-nan
				-nan
				5.95123
				5.57872
				6.09554
				5.64475
				6.09554
				5.66208
				5.95123
				5.64475
				5.76924
				5.57872
				5.6083
				5.53035
				5.47144
				5.50359
				-nan
				5.46745
				-nan
				-nan
				-nan
				-nan
				-nan
				-nan
				-nan
				-nan
				-nan
				-nan
				-nan
				5.43068
				-nan
				-nan
				-nan
				-nan
				5.66352
				5.46297
				5.70503
				5.51083
				5.70503
				5.55365
				5.66352
				5.51083
				5.62561
				5.46297
				-nan
				5.4364
				-nan
				5.42932
				-nan
				5.43068
				-nan
				-nan
				-nan
				-nan
				-nan
				-nan
				-nan
				-nan
				-nan
				-nan
				-nan
				-nan
				-nan
				-nan
				-nan
				-nan
				5.67744
				5.53594
				5.75053
				5.59428
				5.75053
				5.61604
				5.67744
				5.59428
				5.62269
				5.53594
				-nan
				5.50087
				-nan
				-nan
				-nan
				-nan
				-nan
				-nan
				-nan
				-nan
				-nan
				-nan
				-nan
				-nan
				-nan
				-nan
				-nan
				-nan
				-nan
				-nan
				-nan
				-nan
				5.51537
				5.45608
				5.54834
				5.50561
				5.54834
				5.55869
				5.51537
				5.50561
				5.49026
				5.45608
				-nan
				5.42853
				-nan
				-nan
				-nan
				-nan
				-nan
				-nan
				-nan
				-nan
			</DataArray>
			<DataArray type="Float64" Name="velocity" NumberOfComponents="3" Format="ascii">
				-nan -nan 0.0 
				-nan -nan 0.0 
				-nan -nan 0.0 
				-nan -nan 0.0 
				-nan -nan 0.0 
				-nan -nan 0.0 
				-nan -nan 0.0 
				0.98132 -0.0322126 0.0 
				-nan -nan 0.0 
				-nan -nan 0.0 
				-nan -nan 0.0 
				-nan -nan 0.0 
				0.991124 0.0108898 0.0 
				1.03616 -0.0461337 0.0 
				0.983816 0.00554245 0.0 
				1.05615 -0.0301765 0.0 
				0.983816 -0.00554245 0.0 
				1.06559 7.41416e-09 0.0 
				0.991124 -0.0108898 0.0 
				1.05615 0.0301765 0.0 
				1.0002 -0.00368999 0.0 
				1.03616 0.0461337 0.0 
				1.00334 0.0143127 0.0 
				1.01551 0.0519853 0.0 
				0.994381 0.0331759 0.0 
				0.995271 0.0479332 0.0 
				-nan -nan 0.0 
				0.98132 0.0322126 0.0 
				-nan -nan 0.0 
				-nan -nan 0.0 
				-nan -nan 0.0 
				-nan -nan 0.0 
				-nan -nan 0.0 
				-nan -nan 0.0 
				-nan -nan 0.0 
				-nan -nan 0.0 
				-nan -nan 0.0 
				-nan -nan 0.0 
				-nan -nan 0.0 
				0.998388 -0.00347809 0.0 
				-nan -nan 0.0 
				-nan -nan 0.0 
				-nan -nan 0.0 
				-nan -nan 0.0 
				1.0085 -0.00345438 0.0 
				1.00385 -0.00437924 0.0 
				1.01093 -0.000578333 0.0 
				1.00622 -0.00301019 0.0 
				1.01093 0.000578333 0.0 
				1.00759 5.12095e-10 0.0 
				1.0085 0.00345438 0.0 
				1.00622 0.00301019 0.0 
				1.00498 0.00563662 0.0 
				1.00385 0.00437924 0.0 
				-nan -nan 0.0 
				1.0017 0.00473749 0.0 
				-nan -nan 0.0 
				0.999841 0.00442811 0.0 
				-nan -nan 0.0 
				0.998388 0.00347809 0.0 
				-nan -nan 0.0 
				-nan -nan 0.0 
				-nan -nan 0.0 
				-nan -nan 0.0 
				-nan -nan 0.0 
				-nan -nan 0.0 
				-nan -nan 0.0 
				-nan -nan 0.0 
				-nan -nan 0.0 
				-nan -nan 0.0 
				-nan -nan 0.0 
				-nan -nan 0.0 
				-nan -nan 0.0 
				-nan -nan 0.0 
				-nan -nan 0.0 
				-nan -nan 0.0 
				1.0268 -0.0142693 0.0 
				1.02613 -0.0263083 0.0 
				1.03449 -0.00551984 0.0 
				1.04005 -0.0168103 0.0 
				1.03449 0.00551983 0.0 
				1.04639 7.31272e-10 0.0 
				1.0268 0.0142693 0.0 
				1.04005 0.0168103 0.0 
				1.01624 0.0207528 0.0 
				1.02613 0.0263083 0.0 
				-nan -nan 0.0 
				1.01282 0.0311174 0.0 
				-nan -nan 0.0 
				-nan -nan 0.0 
				-nan -nan 0.0 
				-nan -nan 0.0 
				-nan -nan 0.0 
				-nan -nan 0.0 
				-nan -nan 0.0 
				-nan -nan 0.0 
				-nan -nan 0.0 
				-nan -nan 0.0 
				-nan -nan 0.0 
				-nan -nan 0.0 
				-nan -nan 0.0 
				-nan -nan 0.0 
				-nan -nan 0.0 
				-nan -nan 0.0 
				-nan -nan 0.0 
				-nan -nan 0.0 
				-nan -nan 0.0 
				-nan -nan 0.0 
				0.992083 0.00757374 0.0 
				1.00269 -0.00270105 0.0 
				0.988091 0.00452902 0.0 
				1.00424 -0.00176738 0.0 
				0.988091 -0.00452902 0.0 
				1.00513 3.56745e-11 0.0 
				0.992083 -0.00757373 0.0 
				1.00424 0.00176738 0.0 
				0.995577 -0.00847613 0.0 
				1.00269 0.00270105 0.0 
				-nan -nan 0.0 
				1.00129 0.00311982 0.0 
				-nan -nan 0.0 
				-nan -nan 0.0 
				-nan -nan 0.0 
				-nan -nan 0.0 
				-nan -nan 0.0 
				-nan -nan 0.0 
				-nan -nan 0.0 
				-nan -nan 0.0 
			</DataArray>
		</CellData>
		<Points>
		<DataArray type="Float64" NumberOfComponents="3" Format="ascii">
			0.5 0 0.0 
			0.46194 0.191342 0.0 
			0.353553 0.353553 0.0 
			0.191342 0.46194 0.0 
			-2.18557e-08 0.5 0.0 
			-0.191342 0.46194 0.0 
			-0.353553 0.353553 0.0 
			-0.46194 0.191342 0.0 
			-0.5 -4.37114e-08 0.0 
			-0.46194 -0.191342 0.0 
			-0.353553 -0.353553 0.0 
			-0.191342 -0.46194 0.0 
			6.55671e-08 -0.5 0.0 
			0.191342 -0.46194 0.0 
			0.353553 -0.353553 0.0 
			0.46194 -0.191342 0.0 
			0.884503 0.175939 0.0 
			0.749846 0.501031 0.0 
			0.501031 0.749846 0.0 
			0.175939 0.884503 0.0 
			-0.175939 0.884503 0.0 
			-0.501031 0.749846 0.0 
			-0.749846 0.501031 0.0 
			-0.884503 0.175939 0.0 
			-0.884503 -0.175939 0.0 
			-0.749846 -0.501031 0.0 
			-0.501031 -0.749846 0.0 
			-0.175939 -0.884503 0.0 
			0.175939 -0.884503 0.0 
			0.501031 -0.749846 0.0 
			0.749846 -0.501031 0.0 
			0.884503 -0.175938 0.0 
			2.20148 0 0.0 
			2.0339 0.842468 0.0 
			1.55668 1.55668 0.0 
			0.842468 2.0339 0.0 
			-9.62295e-08 2.20148 0.0 
			-0.842468 2.0339 0.0 
			-1.55668 1.55668 0.0 
			-2.0339 0.842468 0.0 
			-2.20148 -1.92459e-07 0.0 
			-2.0339 -0.842468 0.0 
			-1.55668 -1.55668 0.0 
			-0.842468 -2.0339 0.0 
			2.88689e-07 -2.20148 0.0 
			0.842468 -2.0339 0.0 
			1.55668 -1.55668 0.0 
			2.0339 -0.842468 0.0 
			6.28184 1.24954 0.0 
			5.32549 3.55838 0.0 
			3.55838 5.32549 0.0 
			1.24954 6.28184 0.0 
			-1.24954 6.28184 0.0 
			-3.55838 5.32549 0.0 
			-5.32549 3.55838 0.0 
			-6.28184 1.24954 0.0 
			-6.28184 -1.24954 0.0 
			-5.32549 -3.55838 0.0 
			-3.55838 -5.32549 0.0 
			-1.24954 -6.28184 0.0 
			1.24954 -6.28184 0.0 
			3.55838 -5.32549 0.0 
			5.32549 -3.55838 0.0 
			6.28184 -1.24953 0.0 
			20.0001 0 0.0 
			18.4777 7.6537 0.0 
			14.1422 14.1422 0.0 
			7.6537 18.4777 0.0 
			-8.74231e-07 20.0001 0.0 
			-7.6537 18.4777 0.0 
			-14.1422 14.1422 0.0 
			-18.4777 7.65369 0.0 
			-20.0001 -1.74846e-06 0.0 
			-18.4777 -7.6537 0.0 
			-14.1422 -14.1422 0.0 
			-7.65369 -18.4777 0.0 
			2.62269e-06 -20.0001 0.0 
			7.6537 -18.4777 0.0 
			14.1422 -14.1422 0.0 
			18.4777 -7.65369 0.0 
		</DataArray>
		</Points>
		<Cells>
			<DataArray type="UInt32" Name="connectivity" Format="ascii">
				0 16 1 
				0 31 16 
				1 17 2 
				1 16 17 
				2 18 3 
				2 17 18 
				3 19 4 
				3 18 19 
				4 20 5 
				4 19 20 
				5 21 6 
				5 20 21 
				6 22 7 
				6 21 22 
				7 23 8 
				7 22 23 
				8 24 9 
				8 23 24 
				9 25 10 
				9 24 25 
				10 26 11 
				10 25 26 
				11 27 12 
				11 26 27 
				12 28 13 
				12 27 28 
				13 29 14 
				13 28 29 
				14 30 15 
				14 29 30 
				15 31 0 
				15 30 31 
				16 32 33 
				16 31 32 
				17 33 34 
				17 16 33 
				18 34 35 
				18 17 34 
				19 35 36 
				19 18 35 
				20 36 37 
				20 19 36 
				21 37 38 
				21 20 37 
				22 38 39 
				22 21 38 
				23 39 40 
				23 22 39 
				24 40 41 
				24 23 40 
				25 41 42 
				25 24 41 
				26 42 43 
				26 25 42 
				27 43 44 
				27 26 43 
				28 44 45 
				28 27 44 
				29 45 46 
				29 28 45 
				30 46 47 
				30 29 46 
				31 47 32 
				31 30 47 
				32 48 33 
				32 63 48 
				33 49 34 
				33 48 49 
				34 50 35 
				34 49 50 
				35 51 36 
				35 50 51 
				36 52 37 
				36 51 52 
				37 53 38 
				37 52 53 
				38 54 39 
				38 53 54 
				39 55 40 
				39 54 55 
				40 56 41 
				40 55 56 
				41 57 42 
				41 56 57 
				42 58 43 
				42 57 58 
				43 59 44 
				43 58 59 
				44 60 45 
				44 59 60 
				45 61 46 
				45 60 61 
				46 62 47 
				46 61 62 
				47 63 32 
				47 62 63 
				48 64 65 
				48 63 64 
				49 65 66 
				49 48 65 
				50 66 67 
				50 49 66 
				51 67 68 
				51 50 67 
				52 68 69 
				52 51 68 
				53 69 70 
				53 52 69 
				54 70 71 
				54 53 70 
				55 71 72 
				55 54 71 
				56 72 73 
				56 55 72 
				57 73 74 
				57 56 73 
				58 74 75 
				58 57 74 
				59 75 76 
				59 58 75 
				60 76 77 
				60 59 76 
				61 77 78 
				61 60 77 
				62 78 79 
				62 61 78 
				63 79 64 
				63 62 79 
			</DataArray>
			<DataArray type="UInt32" Name="offsets" Format="ascii">
				3
				6
				9
				12
				15
				18
				21
				24
				27
				30
				33
				36
				39
				42
				45
				48
				51
				54
				57
				60
				63
				66
				69
				72
				75
				78
				81
				84
				87
				90
				93
				96
				99
				102
				105
				108
				111
				114
				117
				120
				123
				126
				129
				132
				135
				138
				141
				144
				147
				150
				153
				156
				159
				162
				165
				168
				171
				174
				177
				180
				183
				186
				189
				192
				195
				198
				201
				204
				207
				210
				213
				216
				219
				222
				225
				228
				231
				234
				237
				240
				243
				246
				249
				252
				255
				258
				261
				264
				267
				270
				273
				276
				279
				282
				285
				288
				291
				294
				297
				300
				303
				306
				309
				312
				315
				318
				321
				324
				327
				330
				333
				336
				339
				342
				345
				348
				351
				354
				357
				360
				363
				366
				369
				372
				375
				378
				381
				384
			</DataArray>
			<DataArray type="Int32" Name="types" Format="ascii">
				5
				5
				5
				5
				5
				5
				5
				5
				5
				5
				5
				5
				5
				5
				5
				5
				5
				5
				5
				5
				5
				5
				5
				5
				5
				5
				5
				5
				5
				5
				5
				5
				5
				5
				5
				5
				5
				5
				5
				5
				5
				5
				5
				5
				5
				5
				5
				5
				5
				5
				5
				5
				5
				5
				5
				5
				5
				5
				5
				5
				5
				5
				5
				5
				5
				5
				5
				5
				5
				5
				5
				5
				5
				5
				5
				5
				5
				5
				5
				5
				5
				5
				5
				5
				5
				5
				5
				5
				5
				5
				5
				5
				5
				5
				5
				5
				5
				5
				5
				5
				5
				5
				5
				5
				5
				5
				5
				5
				5
				5
				5
				5
				5
				5
				5
				5
				5
				5
				5
				5
				5
				5
				5
				5
				5
				5
				5
				5
			</DataArray>
		</Cells>
	</Piece>
</UnstructuredGrid>
</VTKFile>