<VTKFile type="UnstructuredGrid" version="0.1" byte_order="LittleEndian">
<UnstructuredGrid>
	<Piece NumberOfPoints="1088" NumberOfCells="2048">
		<PointData Scalars="density" Vectors="velocity">
			<DataArray type="Float64" Name="density" Format="ascii">
				0.265321
				0.264802
				0.263483
				0.261423
				0.258323
				0.254064
				0.248724
				0.242457
				0.235467
				0.227986
				0.220264
				0.212576
				0.205238
				0.198628
				0.193222
				0.189599
				0.188309
				0.189593
				0.193205
				0.198601
				0.2052
				0.212525
				0.220193
				0.227904
				0.235407
				0.242496
				0.248992
				0.254746
				0.259628
				0.263534
				0.266384
				0.268117
				0.268699
				0.268117
				0.266384
				0.263535
				0.259628
				0.254746
				0.248992
				0.242496
				0.235407
				0.227904
				0.220193
				0.212525
				0.2052
				0.198601
				0.193205
				0.189593
				0.188309
				0.189599
				0.193222
				0.198628
				0.205238
				0.212576
				0.220264
				0.227986
				0.235467
				0.242457
				0.248724
				0.254064
				0.258323
				0.261423
				0.263483
				0.264802
				0.264972
				0.264087
				0.262615
				0.260401
				0.257227
				0.253102
				0.248125
				0.242444
				0.236234
				0.229692
				0.223039
				0.216529
				0.210468
				0.205234
				0.201292
				0.19914
				0.199133
				0.20126
				0.20517
				0.210368
				0.216395
				0.222875
				0.22951
				0.236061
				0.24233
				0.248154
				0.253395
				0.257936
				0.261683
				0.26456
				0.266509
				0.267493
				0.267493
				0.266509
				0.26456
				0.261683
				0.257936
				0.253395
				0.248154
				0.24233
				0.236061
				0.22951
				0.222875
				0.216395
				0.210368
				0.20517
				0.20126
				0.199133
				0.19914
				0.201292
				0.205234
				0.210468
				0.216529
				0.223039
				0.229692
				0.236234
				0.242444
				0.248125
				0.253102
				0.257227
				0.260401
				0.262615
				0.264087
				0.264972
				0.263994
				0.263553
				0.262517
				0.26102
				0.25886
				0.255994
				0.252484
				0.248411
				0.243882
				0.239018
				0.23397
				0.228917
				0.224082
				0.219741
				0.216226
				0.2139
				0.213073
				0.21387
				0.216166
				0.219656
				0.223984
				0.22882
				0.233896
				0.238991
				0.243931
				0.248574
				0.252805
				0.256531
				0.259677
				0.262183
				0.264004
				0.26511
				0.26548
				0.26511
				0.264004
				0.262183
				0.259677
				0.256531
				0.252805
				0.248574
				0.243931
				0.238991
				0.233896
				0.22882
				0.223984
				0.219656
				0.216166
				0.21387
				0.213073
				0.2139
				0.216226
				0.219741
				0.224082
				0.228917
				0.23397
				0.239018
				0.243882
				0.248411
				0.252484
				0.255994
				0.25886
				0.26102
				0.262517
				0.263553
				0.261869
				0.26121
				0.26019
				0.258746
				0.256802
				0.254407
				0.251606
				0.248452
				0.245012
				0.241378
				0.23767
				0.234044
				0.230692
				0.227842
				0.225741
				0.224615
				0.224605
				0.225715
				0.227808
				0.230663
				0.234038
				0.237707
				0.241482
				0.245206
				0.248757
				0.252036
				0.254966
				0.257487
				0.259554
				0.261132
				0.262196
				0.262732
				0.262732
				0.262196
				0.261132
				0.259554
				0.257487
				0.254966
				0.252036
				0.248757
				0.245206
				0.241482
				0.237707
				0.234038
				0.230663
				0.227808
				0.225715
				0.224605
				0.224615
				0.225741
				0.227842
				0.230692
				0.234044
				0.23767
				0.241378
				0.245012
				0.248452
				0.251606
				0.254407
				0.256802
				0.258746
				0.26019
				0.26121
				0.261869
				0.259429
				0.259159
				0.258533
				0.257637
				0.256394
				0.254833
				0.252986
				0.250876
				0.248542
				0.246038
				0.243442
				0.240858
				0.238411
				0.236254
				0.234547
				0.233445
				0.233062
				0.233442
				0.234545
				0.236261
				0.238439
				0.240918
				0.243551
				0.24621
				0.24879
				0.25121
				0.253404
				0.255325
				0.256937
				0.258214
				0.259137
				0.259696
				0.259883
				0.259696
				0.259137
				0.258214
				0.256937
				0.255325
				0.253404
				0.25121
				0.24879
				0.24621
				0.243551
				0.240918
				0.238439
				0.236261
				0.234545
				0.233442
				0.233062
				0.233445
				0.234547
				0.236254
				0.238411
				0.240858
				0.243442
				0.246038
				0.248542
				0.250876
				0.252986
				0.254833
				0.256394
				0.257637
				0.258533
				0.259159
				0.256802
				0.256502
				0.256011
				0.25529
				0.254334
				0.253172
				0.251818
				0.250295
				0.248637
				0.246895
				0.245134
				0.243434
				0.24189
				0.240604
				0.239678
				0.239194
				0.239198
				0.239693
				0.240632
				0.241936
				0.243504
				0.245234
				0.247031
				0.248813
				0.250514
				0.252082
				0.253478
				0.254674
				0.255649
				0.256391
				0.256889
				0.257139
				0.257139
				0.256889
				0.256391
				0.255649
				0.254674
				0.253478
				0.252082
				0.250514
				0.248813
				0.247031
				0.245234
				0.243504
				0.241936
				0.240632
				0.239693
				0.239198
				0.239194
				0.239678
				0.240604
				0.24189
				0.243434
				0.245134
				0.246895
				0.248637
				0.250295
				0.251818
				0.253172
				0.254334
				0.25529
				0.256011
				0.256502
				0.256802
				0.254624
				0.254542
				0.25433
				0.253968
				0.25343
				0.252739
				0.251909
				0.250955
				0.249901
				0.248779
				0.247627
				0.246495
				0.24544
				0.244526
				0.243817
				0.243368
				0.243218
				0.243382
				0.243845
				0.244571
				0.245503
				0.246577
				0.247729
				0.2489
				0.250042
				0.251113
				0.252083
				0.25293
				0.253638
				0.254197
				0.2546
				0.254843
				0.254924
				0.254843
				0.2546
				0.254197
				0.253638
				0.25293
				0.252083
				0.251113
				0.250042
				0.2489
				0.247729
				0.246577
				0.245503
				0.244571
				0.243845
				0.243382
				0.243218
				0.243368
				0.243817
				0.244526
				0.24544
				0.246495
				0.247627
				0.248779
				0.249901
				0.250955
				0.251909
				0.252739
				0.25343
				0.253968
				0.25433
				0.254542
				0.252926
				0.252882
				0.252748
				0.25248
				0.252094
				0.251608
				0.251036
				0.250393
				0.249698
				0.248974
				0.248249
				0.247557
				0.246937
				0.246429
				0.246068
				0.245883
				0.24589
				0.246088
				0.246463
				0.246985
				0.247618
				0.248322
				0.249058
				0.249791
				0.250493
				0.25114
				0.251716
				0.252207
				0.252608
				0.252911
				0.253114
				0.253216
				0.253216
				0.253114
				0.252911
				0.252608
				0.252207
				0.251716
				0.25114
				0.250493
				0.249791
				0.249058
				0.248322
				0.247618
				0.246985
				0.246463
				0.246088
				0.24589
				0.245883
				0.246068
				0.246429
				0.246937
				0.247557
				0.248249
				0.248974
				0.249698
				0.250393
				0.251036
				0.251608
				0.252094
				0.25248
				0.252748
				0.252882
				0.252926
				0.251756
				0.251776
				0.251777
				0.251676
				0.251475
				0.251203
				0.250873
				0.250496
				0.250081
				0.249642
				0.249194
				0.248757
				0.248354
				0.248008
				0.247743
				0.247577
				0.247524
				0.247588
				0.247765
				0.248041
				0.248397
				0.248809
				0.249253
				0.249706
				0.250149
				0.250565
				0.250942
				0.25127
				0.251545
				0.251761
				0.251916
				0.25201
				0.252042
				0.25201
				0.251916
				0.251761
				0.251545
				0.25127
				0.250942
				0.250565
				0.250149
				0.249706
				0.249253
				0.248809
				0.248397
				0.248041
				0.247765
				0.247588
				0.247524
				0.247577
				0.247743
				0.248008
				0.248354
				0.248757
				0.249194
				0.249642
				0.250081
				0.250496
				0.250873
				0.251203
				0.251475
				0.251676
				0.251777
				0.251776
				0.251009
				0.25107
				0.251074
				0.250982
				0.250834
				0.250651
				0.250437
				0.250198
				0.24994
				0.249672
				0.249406
				0.249153
				0.248928
				0.248745
				0.248616
				0.248551
				0.248556
				0.248629
				0.248766
				0.248957
				0.249189
				0.249448
				0.249719
				0.24999
				0.250249
				0.250488
				0.250701
				0.250882
				0.25103
				0.251142
				0.251216
				0.251254
				0.251254
				0.251216
				0.251142
				0.25103
				0.250882
				0.250701
				0.250488
				0.250249
				0.24999
				0.249719
				0.249448
				0.249189
				0.248957
				0.248766
				0.248629
				0.248556
				0.248551
				0.248616
				0.248745
				0.248928
				0.249153
				0.249406
				0.249672
				0.24994
				0.250198
				0.250437
				0.250651
				0.250834
				0.250982
				0.251074
				0.25107
				0.251009
				0.250533
				0.250586
				0.25065
				0.250628
				0.25055
				0.25045
				0.250332
				0.250198
				0.250052
				0.249897
				0.249739
				0.249586
				0.249445
				0.249325
				0.249233
				0.249177
				0.24916
				0.249183
				0.249246
				0.249344
				0.24947
				0.249616
				0.249773
				0.249934
				0.250091
				0.250238
				0.250372
				0.250489
				0.250586
				0.250663
				0.250718
				0.250751
				0.250762
				0.250751
				0.250718
				0.250663
				0.250586
				0.250489
				0.250372
				0.250238
				0.250091
				0.249934
				0.249773
				0.249616
				0.24947
				0.249344
				0.249246
				0.249183
				0.24916
				0.249177
				0.249233
				0.249325
				0.249445
				0.249586
				0.249739
				0.249897
				0.250052
				0.250198
				0.250332
				0.25045
				0.25055
				0.250628
				0.25065
				0.250586
				0.250281
				0.25036
				0.250389
				0.250351
				0.250296
				0.250233
				0.25016
				0.250079
				0.249992
				0.249901
				0.249811
				0.249726
				0.24965
				0.249589
				0.249547
				0.249526
				0.249529
				0.249555
				0.249603
				0.249669
				0.249749
				0.249839
				0.249932
				0.250025
				0.250115
				0.250197
				0.250271
				0.250333
				0.250384
				0.250423
				0.250449
				0.250461
				0.250461
				0.250449
				0.250423
				0.250384
				0.250333
				0.250271
				0.250197
				0.250115
				0.250025
				0.249932
				0.249839
				0.249749
				0.249669
				0.249603
				0.249555
				0.249529
				0.249526
				0.249547
				0.249589
				0.24965
				0.249726
				0.249811
				0.249901
				0.249992
				0.250079
				0.25016
				0.250233
				0.250296
				0.250351
				0.250389
				0.25036
				0.250281
				0.250118
				0.250166
				0.250226
				0.25022
				0.250188
				0.250154
				0.250116
				0.250072
				0.250024
				0.249974
				0.249922
				0.249873
				0.249827
				0.249788
				0.249759
				0.249742
				0.249737
				0.249746
				0.249768
				0.249801
				0.249844
				0.249893
				0.249946
				0.250001
				0.250053
				0.250103
				0.250148
				0.250187
				0.25022
				0.250246
				0.250264
				0.250275
				0.250279
				0.250275
				0.250264
				0.250246
				0.25022
				0.250187
				0.250148
				0.250103
				0.250053
				0.250001
				0.249946
				0.249893
				0.249844
				0.249801
				0.249768
				0.249746
				0.249737
				0.249742
				0.249759
				0.249788
				0.249827
				0.249873
				0.249922
				0.249974
				0.250024
				0.250072
				0.250116
				0.250154
				0.250188
				0.25022
				0.250226
				0.250166
				0.250053
				0.250112
				0.250134
				0.250117
				0.250097
				0.250078
				0.250056
				0.250031
				0.250004
				0.249975
				0.249947
				0.249921
				0.249898
				0.249879
				0.249866
				0.249861
				0.249863
				0.249873
				0.24989
				0.249913
				0.249941
				0.249972
				0.250004
				0.250035
				0.250066
				0.250094
				0.250118
				0.25014
				0.250157
				0.25017
				0.250178
				0.250183
				0.250183
				0.250178
				0.25017
				0.250157
				0.25014
				0.250118
				0.250094
				0.250066
				0.250035
				0.250004
				0.249972
				0.249941
				0.249913
				0.24989
				0.249873
				0.249863
				0.249861
				0.249866
				0.249879
				0.249898
				0.249921
				0.249947
				0.249975
				0.250004
				0.250031
				0.250056
				0.250078
				0.250097
				0.250117
				0.250134
				0.250112
				0.250053
				0.249998
				0.250031
				0.25007
				0.250068
				0.250056
				0.250047
				0.250037
				0.250025
				0.250012
				0.249997
				0.249983
				0.249968
				0.249955
				0.249944
				0.249937
				0.249932
				0.249932
				0.249935
				0.249943
				0.249955
				0.249969
				0.249986
				0.250003
				0.250021
				0.250038
				0.250055
				0.250069
				0.250082
				0.250093
				0.250101
				0.250107
				0.250111
				0.250112
				0.250111
				0.250107
				0.250101
				0.250093
				0.250082
				0.250069
				0.250055
				0.250038
				0.250021
				0.250003
				0.249986
				0.249969
				0.249955
				0.249943
				0.249935
				0.249932
				0.249932
				0.249937
				0.249944
				0.249955
				0.249968
				0.249983
				0.249997
				0.250012
				0.250025
				0.250037
				0.250047
				0.250056
				0.250068
				0.25007
				0.250031
				0.249993
				0.250026
				0.250039
				0.250032
				0.250027
				0.250023
				0.250017
				0.25001
				0.250002
				0.249995
				0.249987
				0.249981
				0.249975
				0.249972
				0.24997
				0.24997
				0.249973
				0.249978
				0.249986
				0.249997
				0.250008
				0.250021
				0.250034
				0.250046
				0.250058
				0.250068
				0.250077
				0.250085
				0.250091
				0.250096
				0.250099
				0.250101
				0.250101
				0.250099
				0.250096
				0.250091
				0.250085
				0.250077
				0.250068
				0.250058
				0.250046
				0.250034
				0.250021
				0.250008
				0.249997
				0.249986
				0.249978
				0.249973
				0.24997
				0.24997
				0.249972
				0.249975
				0.249981
				0.249987
				0.249995
				0.250002
				0.25001
				0.250017
				0.250023
				0.250027
				0.250032
				0.250039
				0.250026
				0.249993
				0.249994
				0.250012
				0.250032
				0.250031
				0.250025
				0.250021
				0.250016
				0.250011
				0.250004
				0.249998
				0.249992
				0.249987
				0.249983
				0.249981
				0.24998
				0.249981
				0.249984
				0.249991
				0.249998
				0.250008
				0.25002
				0.250032
				0.250045
				0.250057
				0.250068
				0.250079
				0.250088
				0.250095
				0.250102
				0.250107
				0.25011
				0.250112
				0.250113
				0.250112
				0.25011
				0.250107
				0.250102
				0.250095
				0.250088
				0.250079
				0.250068
				0.250057
				0.250045
				0.250032
				0.25002
				0.250008
				0.249998
				0.249991
				0.249984
				0.249981
				0.24998
				0.249981
				0.249983
				0.249987
				0.249992
				0.249998
				0.250004
				0.250011
				0.250016
				0.250021
				0.250025
				0.250031
				0.250032
				0.250012
			</DataArray>
			<DataArray type="Float64" Name="mach-number" Format="ascii">
				0.0213296
				0.0491934
				0.0980352
				0.156481
				0.220802
				0.288286
				0.357103
				0.425965
				0.493938
				0.560267
				0.624168
				0.684685
				0.740478
				0.789599
				0.829257
				0.85573
				0.865353
				0.856582
				0.831309
				0.793341
				0.746489
				0.693593
				0.636655
				0.577008
				0.515556
				0.452921
				0.389524
				0.325681
				0.261644
				0.197687
				0.13432
				0.0734873
				0.0344074
				0.0734874
				0.13432
				0.197687
				0.261644
				0.325681
				0.389525
				0.452921
				0.515556
				0.577008
				0.636655
				0.693593
				0.746488
				0.793341
				0.831309
				0.856581
				0.865352
				0.85573
				0.829258
				0.789599
				0.740478
				0.684685
				0.624167
				0.560266
				0.493938
				0.425965
				0.357103
				0.288286
				0.220801
				0.156481
				0.0980353
				0.0491936
				0.0587821
				0.0949965
				0.145768
				0.202471
				0.26201
				0.322691
				0.383376
				0.443285
				0.501823
				0.558407
				0.612327
				0.662612
				0.707855
				0.746059
				0.774494
				0.79008
				0.790548
				0.775952
				0.748558
				0.711469
				0.667439
				0.618549
				0.566287
				0.511704
				0.455562
				0.398436
				0.340805
				0.283156
				0.226131
				0.170931
				0.120609
				0.0848218
				0.0848219
				0.120609
				0.170931
				0.226131
				0.283156
				0.340806
				0.398436
				0.455562
				0.511704
				0.566287
				0.618549
				0.667439
				0.711469
				0.748558
				0.775952
				0.790548
				0.79008
				0.774494
				0.746059
				0.707855
				0.662612
				0.612327
				0.558407
				0.501823
				0.443285
				0.383376
				0.322691
				0.26201
				0.202471
				0.145768
				0.0949964
				0.0587821
				0.108263
				0.126582
				0.166811
				0.211647
				0.25682
				0.302345
				0.348145
				0.394027
				0.439686
				0.484661
				0.52831
				0.569766
				0.607868
				0.641081
				0.667454
				0.684764
				0.69105
				0.685474
				0.66878
				0.642843
				0.609838
				0.571692
				0.529932
				0.485728
				0.439985
				0.393455
				0.346833
				0.300881
				0.256605
				0.215559
				0.180371
				0.155377
				0.146081
				0.155377
				0.180371
				0.215559
				0.256605
				0.300881
				0.346833
				0.393455
				0.439985
				0.485727
				0.529932
				0.571692
				0.609838
				0.642843
				0.66878
				0.685474
				0.69105
				0.684764
				0.667454
				0.641081
				0.607867
				0.569766
				0.52831
				0.484661
				0.439685
				0.394027
				0.348145
				0.302345
				0.25682
				0.211647
				0.166811
				0.126582
				0.171723
				0.200154
				0.234894
				0.266387
				0.296812
				0.32808
				0.360643
				0.394366
				0.428736
				0.463009
				0.496275
				0.527465
				0.55532
				0.578387
				0.595096
				0.604005
				0.604206
				0.595669
				0.57925
				0.556333
				0.52843
				0.496927
				0.463001
				0.427639
				0.391695
				0.355969
				0.32129
				0.288614
				0.259139
				0.234393
				0.216225
				0.206513
				0.206513
				0.216225
				0.234393
				0.259139
				0.288615
				0.32129
				0.355969
				0.391695
				0.427639
				0.463001
				0.496927
				0.52843
				0.556333
				0.57925
				0.595669
				0.604206
				0.604005
				0.595096
				0.578386
				0.555319
				0.527464
				0.496275
				0.463009
				0.428736
				0.394366
				0.360643
				0.328079
				0.296812
				0.266387
				0.234894
				0.200153
				0.171723
				0.222645
				0.236878
				0.263696
				0.285507
				0.303838
				0.323311
				0.344957
				0.368566
				0.393548
				0.419138
				0.444501
				0.468738
				0.490869
				0.509826
				0.524499
				0.533853
				0.537126
				0.534023
				0.524807
				0.510207
				0.491228
				0.46895
				0.444402
				0.418518
				0.392135
				0.36602
				0.340912
				0.317557
				0.296736
				0.279274
				0.266004
				0.257679
				0.254838
				0.257679
				0.266004
				0.279274
				0.296736
				0.317557
				0.340913
				0.36602
				0.392135
				0.418518
				0.444402
				0.46895
				0.491228
				0.510207
				0.524806
				0.534023
				0.537126
				0.533853
				0.524499
				0.509826
				0.490869
				0.468738
				0.444501
				0.419138
				0.393548
				0.368566
				0.344957
				0.323311
				0.303838
				0.285507
				0.263696
				0.236878
				0.272543
				0.291271
				0.308004
				0.318489
				0.329443
				0.342983
				0.35861
				0.3757
				0.393618
				0.411733
				0.42939
				0.445885
				0.460458
				0.472324
				0.48074
				0.485107
				0.485084
				0.480662
				0.472166
				0.460182
				0.445446
				0.428745
				0.410844
				0.392455
				0.374225
				0.356743
				0.340546
				0.326131
				0.313952
				0.304411
				0.297844
				0.294496
				0.294496
				0.297844
				0.304411
				0.313952
				0.326131
				0.340546
				0.356743
				0.374225
				0.392455
				0.410844
				0.428745
				0.445446
				0.460182
				0.472166
				0.480662
				0.485084
				0.485107
				0.48074
				0.472324
				0.460458
				0.445885
				0.429389
				0.411732
				0.393618
				0.3757
				0.35861
				0.342982
				0.329443
				0.318489
				0.308004
				0.291271
				0.272543
				0.305191
				0.314195
				0.328068
				0.335047
				0.340495
				0.348443
				0.358264
				0.369249
				0.380984
				0.393077
				0.405119
				0.416647
				0.427145
				0.43607
				0.442893
				0.447163
				0.448572
				0.447008
				0.442574
				0.435577
				0.426465
				0.415774
				0.40406
				0.391864
				0.379678
				0.367943
				0.357036
				0.34728
				0.33894
				0.332232
				0.327322
				0.324329
				0.323324
				0.324329
				0.327322
				0.332232
				0.33894
				0.34728
				0.357036
				0.367943
				0.379678
				0.391864
				0.40406
				0.415773
				0.426465
				0.435577
				0.442574
				0.447008
				0.448572
				0.447163
				0.442893
				0.436069
				0.427145
				0.416647
				0.405119
				0.393077
				0.380984
				0.369249
				0.358264
				0.348443
				0.340495
				0.335047
				0.328068
				0.314195
				0.33285
				0.342931
				0.349373
				0.352025
				0.356278
				0.36219
				0.368869
				0.376093
				0.383686
				0.391421
				0.399018
				0.406144
				0.412441
				0.417547
				0.421134
				0.422955
				0.422872
				0.420885
				0.41713
				0.411856
				0.405393
				0.39811
				0.390381
				0.382555
				0.374943
				0.367807
				0.361363
				0.355778
				0.351179
				0.347658
				0.345279
				0.34408
				0.34408
				0.345279
				0.347658
				0.351179
				0.355778
				0.361363
				0.367807
				0.374943
				0.382555
				0.390381
				0.39811
				0.405393
				0.411856
				0.41713
				0.420885
				0.422872
				0.422955
				0.421134
				0.417547
				0.412441
				0.406144
				0.399018
				0.391421
				0.383686
				0.376093
				0.368869
				0.36219
				0.356278
				0.352025
				0.349373
				0.342931
				0.33285
				0.348424
				0.353186
				0.359563
				0.361677
				0.36366
				0.367045
				0.370933
				0.375149
				0.379675
				0.384399
				0.389158
				0.393753
				0.397957
				0.401532
				0.404257
				0.405947
				0.406478
				0.405809
				0.403984
				0.401126
				0.397423
				0.393101
				0.388401
				0.383555
				0.378773
				0.374235
				0.370084
				0.366433
				0.363361
				0.360926
				0.359164
				0.358099
				0.357743
				0.358099
				0.359164
				0.360926
				0.363361
				0.366433
				0.370084
				0.374235
				0.378773
				0.383555
				0.388401
				0.393101
				0.397423
				0.401126
				0.403984
				0.405809
				0.406478
				0.405947
				0.404257
				0.401532
				0.397957
				0.393753
				0.389158
				0.384399
				0.379675
				0.375149
				0.370933
				0.367045
				0.36366
				0.361677
				0.359563
				0.353186
				0.360822
				0.365811
				0.368573
				0.369541
				0.371291
				0.373482
				0.375835
				0.378419
				0.381188
				0.384049
				0.386885
				0.38956
				0.39193
				0.393851
				0.395194
				0.395865
				0.395812
				0.395037
				0.393593
				0.391577
				0.389119
				0.386364
				0.38346
				0.380542
				0.37773
				0.375121
				0.372788
				0.370786
				0.369153
				0.367912
				0.367078
				0.36666
				0.36666
				0.367078
				0.367912
				0.369153
				0.370786
				0.372788
				0.375121
				0.37773
				0.380542
				0.38346
				0.386364
				0.389119
				0.391577
				0.393593
				0.395037
				0.395812
				0.395865
				0.395194
				0.393851
				0.39193
				0.38956
				0.386885
				0.384049
				0.381188
				0.378419
				0.375835
				0.373482
				0.371291
				0.369541
				0.368573
				0.365811
				0.360822
				0.367103
				0.369545
				0.372762
				0.373756
				0.374516
				0.375683
				0.376957
				0.378379
				0.379949
				0.38161
				0.383296
				0.384933
				0.386432
				0.387708
				0.388678
				0.389273
				0.38945
				0.389194
				0.388522
				0.387479
				0.386135
				0.384574
				0.382885
				0.381152
				0.379452
				0.377848
				0.376391
				0.375117
				0.374051
				0.373211
				0.372605
				0.37224
				0.372118
				0.37224
				0.372605
				0.373211
				0.374051
				0.375117
				0.376391
				0.377848
				0.379452
				0.381152
				0.382885
				0.384574
				0.386135
				0.387479
				0.388522
				0.389194
				0.38945
				0.389273
				0.388678
				0.387708
				0.386432
				0.384933
				0.383296
				0.38161
				0.379949
				0.378379
				0.376957
				0.375683
				0.374516
				0.373756
				0.372762
				0.369545
				0.372221
				0.374926
				0.376443
				0.376806
				0.377332
				0.378005
				0.378765
				0.37963
				0.380566
				0.381538
				0.382504
				0.383417
				0.384224
				0.384877
				0.385329
				0.385548
				0.385517
				0.385236
				0.384723
				0.384014
				0.383154
				0.382195
				0.381187
				0.380178
				0.37921
				0.378316
				0.377519
				0.376838
				0.376284
				0.375864
				0.375583
				0.375442
				0.375442
				0.375583
				0.375864
				0.376284
				0.376838
				0.377519
				0.378316
				0.37921
				0.380178
				0.381187
				0.382195
				0.383154
				0.384014
				0.384723
				0.385236
				0.385517
				0.385548
				0.385329
				0.384877
				0.384224
				0.383417
				0.382504
				0.381538
				0.380566
				0.37963
				0.378765
				0.378005
				0.377332
				0.376806
				0.376443
				0.374926
				0.372221
				0.374614
				0.376011
				0.377866
				0.378342
				0.378492
				0.378822
				0.379223
				0.379687
				0.3802
				0.380742
				0.381292
				0.381826
				0.382313
				0.382726
				0.383036
				0.383221
				0.383266
				0.383166
				0.382929
				0.382568
				0.382108
				0.381576
				0.381004
				0.380419
				0.379848
				0.37931
				0.378823
				0.378399
				0.378044
				0.377765
				0.377565
				0.377444
				0.377404
				0.377444
				0.377565
				0.377765
				0.378044
				0.378399
				0.378823
				0.37931
				0.379848
				0.380419
				0.381004
				0.381576
				0.382108
				0.382568
				0.382928
				0.383166
				0.383266
				0.383221
				0.383036
				0.382726
				0.382313
				0.381826
				0.381292
				0.380742
				0.3802
				0.379687
				0.379223
				0.378822
				0.378492
				0.378342
				0.377866
				0.376011
				0.376826
				0.37843
				0.37927
				0.379314
				0.379423
				0.379633
				0.379871
				0.380137
				0.380423
				0.380718
				0.381011
				0.381287
				0.381531
				0.381727
				0.38186
				0.381919
				0.381896
				0.381791
				0.381611
				0.381368
				0.381076
				0.380752
				0.380413
				0.380076
				0.379753
				0.379455
				0.37919
				0.378963
				0.37878
				0.378641
				0.378547
				0.378501
				0.378501
				0.378547
				0.378641
				0.37878
				0.378963
				0.37919
				0.379455
				0.379753
				0.380076
				0.380413
				0.380752
				0.381076
				0.381368
				0.381611
				0.381791
				0.381896
				0.381919
				0.38186
				0.381727
				0.381531
				0.381287
				0.381011
				0.380718
				0.380423
				0.380137
				0.379871
				0.379633
				0.379423
				0.379314
				0.37927
				0.37843
				0.376826
				0.377784
				0.37862
				0.379699
				0.379891
				0.379871
				0.379959
				0.380064
				0.380175
				0.380296
				0.380426
				0.380561
				0.380694
				0.380819
				0.380925
				0.381004
				0.381049
				0.381057
				0.381022
				0.380942
				0.380825
				0.380677
				0.380507
				0.380325
				0.38014
				0.379959
				0.379789
				0.379635
				0.379501
				0.379389
				0.379302
				0.379238
				0.3792
				0.379188
				0.3792
				0.379238
				0.379302
				0.379389
				0.379501
				0.379635
				0.379789
				0.379959
				0.38014
				0.380325
				0.380507
				0.380677
				0.380825
				0.380942
				0.381022
				0.381057
				0.381049
				0.381004
				0.380925
				0.380819
				0.380694
				0.380561
				0.380426
				0.380296
				0.380175
				0.380064
				0.379959
				0.379871
				0.379891
				0.379699
				0.37862
				0.378918
				0.379845
				0.380265
				0.380199
				0.380171
				0.38018
				0.380186
				0.380202
				0.38023
				0.38027
				0.380317
				0.380368
				0.380416
				0.380456
				0.380483
				0.380495
				0.380484
				0.380465
				0.380418
				0.380348
				0.38026
				0.380161
				0.380054
				0.379947
				0.379843
				0.379747
				0.379661
				0.379587
				0.379527
				0.379482
				0.379451
				0.379436
				0.379436
				0.379451
				0.379482
				0.379527
				0.379587
				0.379661
				0.379747
				0.379843
				0.379947
				0.380054
				0.380161
				0.38026
				0.380348
				0.380418
				0.380465
				0.380484
				0.380495
				0.380483
				0.380456
				0.380416
				0.380368
				0.380317
				0.38027
				0.38023
				0.380202
				0.380186
				0.38018
				0.380171
				0.380199
				0.380265
				0.379845
				0.378918
				0.379101
				0.379647
				0.380319
				0.380368
				0.380268
				0.380233
				0.380201
				0.380176
				0.380167
				0.380173
				0.380192
				0.380219
				0.38025
				0.380279
				0.380301
				0.380313
				0.380299
				0.38028
				0.380259
				0.380216
				0.380155
				0.380081
				0.379998
				0.379911
				0.379825
				0.379743
				0.379667
				0.379601
				0.379546
				0.379502
				0.37947
				0.379451
				0.379444
				0.379451
				0.37947
				0.379502
				0.379546
				0.379601
				0.379667
				0.379743
				0.379825
				0.379911
				0.379998
				0.380081
				0.380155
				0.380216
				0.380259
				0.38028
				0.380299
				0.380313
				0.380301
				0.380279
				0.38025
				0.380219
				0.380192
				0.380173
				0.380167
				0.380176
				0.380201
				0.380233
				0.380268
				0.380368
				0.380319
				0.379647
			</DataArray>
			<DataArray type="Float64" Name="pressure" Format="ascii">
				1.33903
				1.33723
				1.3307
				1.31735
				1.29597
				1.26644
				1.22952
				1.18649
				1.13898
				1.08871
				1.03748
				0.987171
				0.939801
				0.897697
				0.863667
				0.841064
				0.83305
				0.840987
				0.863421
				0.897226
				0.939043
				0.986079
				1.03602
				1.08693
				1.13716
				1.18521
				1.22976
				1.2696
				1.30371
				1.33119
				1.35134
				1.36364
				1.36777
				1.36364
				1.35134
				1.33119
				1.30371
				1.2696
				1.22976
				1.18521
				1.13716
				1.08693
				1.03602
				0.986079
				0.939043
				0.897225
				0.863421
				0.840987
				0.83305
				0.841064
				0.863667
				0.897698
				0.939802
				0.987171
				1.03748
				1.08871
				1.13898
				1.18649
				1.22952
				1.26644
				1.29597
				1.31735
				1.3307
				1.33723
				1.33851
				1.33502
				1.32637
				1.31114
				1.28896
				1.26021
				1.22573
				1.18672
				1.14452
				1.10055
				1.05634
				1.01359
				0.974232
				0.940592
				0.915465
				0.901787
				0.901652
				0.915
				0.93976
				0.973008
				1.012
				1.05442
				1.09839
				1.14231
				1.18481
				1.2247
				1.26093
				1.29257
				1.31885
				1.33912
				1.35292
				1.3599
				1.3599
				1.35292
				1.33912
				1.31885
				1.29257
				1.26093
				1.2247
				1.18481
				1.14231
				1.09839
				1.05442
				1.012
				0.973008
				0.93976
				0.915
				0.901652
				0.901787
				0.915465
				0.940592
				0.974232
				1.01359
				1.05634
				1.10055
				1.14452
				1.18672
				1.22573
				1.26021
				1.28896
				1.31114