<VTKFile type="UnstructuredGrid" version="0.1" byte_order="LittleEndian">
<UnstructuredGrid>
	<Piece NumberOfPoints="80" NumberOfCells="128">
		<CellData Scalars="density" Vectors="velocity">
			<DataArray type="Float64" Name="density" Format="ascii">
				0.991502
				0.95604
				0.977213
				0.979178
				0.922149
				0.980858
				0.856888
				0.947211
				0.852447
				0.921268
				0.931147
				0.945362
				1.02104
				0.99352
				1.07561
				1.03172
				1.07559
				1.04653
				1.02087
				1.03164
				0.93074
				0.993319
				0.851572
				0.944938
				0.855715
				0.920513
				0.921344
				0.946351
				0.978852
				0.97992
				0.906829
				0.973265
				0.986083
				0.93082
				0.997442
				1.00211
				0.992949
				0.988084
				0.988527
				0.980535
				0.991063
				0.978215
				0.99976
				0.989143
				1.00885
				1.0064
				1.01425
				1.01854
				1.01423
				1.01765
				1.0088
				1.01851
				0.999678
				1.00631
				0.990958
				0.988999
				0.988435
				0.978041
				0.992925
				0.980431
				0.997319
				0.988091
				0.986613
				1.00507
				0.994354
				0.997817
				1.00049
				0.999868
				0.997911
				0.999977
				0.996344
				0.998708
				0.997443
				0.998233
				1.00057
				0.99911
				1.0037
				1.00075
				1.00554
				1.00193
				1.00554
				1.00208
				1.00368
				1.00193
				1.00056
				1.00074
				0.997438
				0.99911
				0.996369
				0.998252
				0.997975
				0.998769
				1.00045
				1.00012
				0.99432
				0.999788
				0.997639
				0.98965
				0.999089
				1.00117
				0.999531
				0.998689
				0.999786
				0.999146
				1.00018
				0.999772
				1.00061
				1.00051
				1.00095
				1.00111
				1.00115
				1.00139
				1.00115
				1.00133
				1.00096
				1.00139
				1.00063
				1.00112
				1.0002
				1.00053
				0.999817
				0.999805
				0.999573
				0.999195
				0.999117
				0.998764
				0.997176
				1.00165
			</DataArray>
			<DataArray type="Float64" Name="mach-number" Format="ascii">
				0.0820855
				0.0734476
				0.262904
				0.210684
				0.456609
				0.367583
				0.619383
				0.502212
				0.648683
				0.565367
				0.518786
				0.518533
				0.332686
				0.40419
				0.151198
				0.282624
				0.15149
				0.247527
				0.333154
				0.282904
				0.519585
				0.404648
				0.650239
				0.519276
				0.621544
				0.566559
				0.458746
				0.503626
				0.265196
				0.368833
				0.0964406
				0.216302
				0.301539
				0.153545
				0.385504
				0.360256
				0.40791
				0.403888
				0.416757
				0.43241
				0.408714
				0.439152
				0.383309
				0.413336
				0.356773
				0.367948
				0.343071
				0.332758
				0.343135
				0.337451
				0.356932
				0.332896
				0.383557
				0.368222
				0.409018
				0.413752
				0.416997
				0.439624
				0.407924
				0.432704
				0.385423
				0.403783
				0.30147
				0.361493
				0.334342
				0.322014
				0.380107
				0.376926
				0.385889
				0.382336
				0.389949
				0.385059
				0.387763
				0.385884
				0.379776
				0.382359
				0.371254
				0.377244
				0.36557
				0.373764
				0.365596
				0.375248
				0.371305
				0.373776
				0.379835
				0.37726
				0.387795
				0.382362
				0.38989
				0.385844
				0.385677
				0.384926
				0.379729
				0.382057
				0.337559
				0.376644
				0.376366
				0.32577
				0.383582
				0.396767
				0.382704
				0.384096
				0.381906
				0.383466
				0.380721
				0.381997
				0.379547
				0.38029
				0.378737
				0.378986
				0.378401
				0.378553
				0.378395
				0.379732
				0.37872
				0.378548
				0.379516
				0.378968
				0.380671
				0.380249
				0.381833
				0.38192
				0.382608
				0.383344
				0.38352
				0.383869
				0.375023
				0.397765
			</DataArray>
			<DataArray type="Float64" Name="pressure" Format="ascii">
				5.03079
				5.00436
				4.88417
				4.96458
				4.49267
				4.88209
				4.04177
				4.61805
				3.99446
				4.44251
				4.49035
				4.60554
				5.08355
				4.92868
				5.46729
				5.17839
				5.46696
				5.24984
				5.08235
				5.17783
				4.48762
				4.92738
				3.98882
				4.60287
				4.03414
				4.43787
				4.48629
				4.61299
				4.88057
				4.87909
				5.05356
				4.95329
				4.95505
				4.95568
				4.93369
				4.94358
				4.89237
				4.87093
				4.86086
				4.81191
				4.87904
				4.7948
				4.94181
				4.86937
				5.00711
				4.98902
				5.04649
				5.07472
				5.04638
				5.08773
				5.00677
				5.07446
				4.94124
				4.98843
				4.87828
				4.86837
				4.86018
				4.79364
				4.8922
				4.81137
				4.93415
				4.87162
				4.9506
				4.94603
				4.9562
				4.97332
				4.94944
				4.95216
				4.93147
				4.94577
				4.92109
				4.93808
				4.92886
				4.93495
				4.95059
				4.94085
				4.97221
				4.9519
				4.98503
				4.95985
				4.985
				4.96088
				4.97213
				4.95983
				4.95048
				4.95186
				4.92882
				4.94084
				4.92126
				4.93508
				4.93196
				4.93848
				4.94968
				4.94661
				4.95195
				4.95347
				4.93842
				4.93437
				4.94035
				4.94237
				4.94337
				4.93719
				4.94507
				4.94066
				4.94776
				4.94502
				4.95081
				4.95013
				4.95315
				4.95424
				4.95456
				4.95621
				4.95458
				4.95591
				4.9532
				4.95623
				4.9509
				4.95431
				4.9479
				4.95026
				4.94528
				4.94524
				4.94366
				4.94099
				4.94053
				4.93763
				4.93787
				4.94343
			</DataArray>
			<DataArray type="Float64" Name="velocity" NumberOfComponents="3" Format="ascii">
				0.212056 -0.0538127 0.0 
				0.198559 0.0103494 0.0 
				0.605279 -0.34246 0.0 
				0.54177 -0.146831 0.0 
				1.1262 -0.392093 0.0 
				0.940389 -0.239186 0.0 
				1.58705 -0.120872 0.0 
				1.30323 -0.15204 0.0 
				1.61878 0.374184 0.0 
				1.46427 0.117516 0.0 
				1.16441 0.679117 0.0 
				1.29335 0.401359 0.0 
				0.635731 0.606071 0.0 
				0.953118 0.4756 0.0 
				0.319242 0.246508 0.0 
				0.680432 0.313511 0.0 
				0.319482 -0.247456 0.0 
				0.655969 -0.000393801 0.0 
				0.636406 -0.607106 0.0 
				0.680873 -0.314301 0.0 
				1.16602 -0.680248 0.0 
				0.954085 -0.476289 0.0 
				1.62239 -0.374864 0.0 
				1.29521 -0.40161 0.0 
				1.59211 0.122096 0.0 
				1.46729 -0.116518 0.0 
				1.13064 0.395329 0.0 
				1.30651 0.154773 0.0 
				0.608469 0.347408 0.0 
				0.942953 0.243142 0.0 
				0.261419 0.0649916 0.0 
				0.560473 0.138668 0.0 
				0.797313 -0.0628575 0.0 
				0.419173 0.00459368 0.0 
				1.01258 -0.0617641 0.0 
				0.943496 -0.0785248 0.0 
				1.07017 -0.0499875 0.0 
				1.05789 -0.0817382 0.0 
				1.09347 -0.00363437 0.0 
				1.1327 -0.0400937 0.0 
				1.07116 0.0628741 0.0 
				1.14951 0.0452507 0.0 
				1.00401 0.0933458 0.0 
				1.07706 0.131969 0.0 
				0.937781 0.0708362 0.0 
				0.958669 0.143405 0.0 
				0.905232 0.0203664 0.0 
				0.875156 0.0803692 0.0 
				0.905392 -0.0206239 0.0 
				0.892767 -0.000238936 0.0 
				0.93818 -0.0710115 0.0 
				0.875473 -0.0808231 0.0 
				1.00465 -0.0933224 0.0 
				0.959329 -0.143744 0.0 
				1.07195 -0.062433 0.0 
				1.07813 -0.131911 0.0 
				1.09407 0.00475954 0.0 
				1.15074 -0.0442977 0.0 
				1.07012 0.051645 0.0 
				1.13339 0.0420819 0.0 
				1.01239 0.0631444 0.0 
				1.05748 0.0843392 0.0 
				0.7962 0.0671973 0.0 
				0.945362 0.0812176 0.0 
				0.883194 0.0032245 0.0 
				0.850619 0.00196103 0.0 
				1.00029 -0.00856168 0.0 
				0.992514 0.00657329 0.0 
				1.01498 -0.0069591 0.0 
				1.00607 0.00367106 0.0 
				1.02539 0.00722078 0.0 
				1.01306 0.00845919 0.0 
				1.01955 0.0268814 0.0 
				1.01501 0.0187339 0.0 
				0.998893 0.0356442 0.0 
				1.00576 0.0248954 0.0 
				0.977278 0.0290176 0.0 
				0.992656 0.0224281 0.0 
				0.963022 0.011836 0.0 
				0.983868 0.0133473 0.0 
				0.96309 -0.0118285 0.0 
				0.987893 1.48372e-05 0.0 
				0.977412 -0.0289411 0.0 
				0.9839 -0.0132949 0.0 
				0.999053 -0.0354369 0.0 
				0.9927 -0.022321 0.0 
				1.01964 -0.0264832 0.0 
				1.00578 -0.0247032 0.0 
				1.02524 -0.00661748 0.0 
				1.01492 -0.0184481 0.0 
				1.01444 0.00763689 0.0 
				1.01272 -0.00807481 0.0 
				0.999335 0.00921729 0.0 
				1.00535 -0.00304842 0.0 
				0.891315 -0.0054729 0.0 
				0.991952 -0.00483947 0.0 
				0.990755 -0.00841953 0.0 
				0.860698 -9.17467e-05 0.0 
				1.00925 -0.00277508 0.0 
				1.04306 0.00439715 0.0 
				1.00703 -0.000628066 0.0 
				1.01048 0.000307773 0.0 
				1.00497 0.00150933 0.0 
				1.00894 0.00385775 0.0 
				1.00193 0.00277387 0.0 
				1.00519 0.00561051 0.0 
				0.998925 0.00280822 0.0 
				1.00085 0.00549337 0.0 
				0.996864 0.00171409 0.0 
				0.997546 0.00378067 0.0 
				0.996022 0.000286324 0.0 
				0.996468 0.00140538 0.0 
				0.996008 -0.000234099 0.0 
				0.999571 3.81714e-05 0.0 
				0.996821 -0.00166399 0.0 
				0.996456 -0.00132022 0.0 
				0.998845 -0.00276515 0.0 
				0.997501 -0.00367852 0.0 
				1.0018 -0.00275176 0.0 
				1.00075 -0.00537664 0.0 
				1.00478 -0.00153918 0.0 
				1.005 -0.00550372 0.0 
				1.00678 0.000497392 0.0 
				1.00863 -0.00379528 0.0 
				1.00909 0.00245136 0.0 
				1.00989 -0.00021712 0.0 
				0.987385 0.00929428 0.0 
				1.04554 -0.00512232 0.0 
			</DataArray>
		</CellData>
		<Points>
		<DataArray type="Float64" NumberOfComponents="3" Format="ascii">
			0.5 0 0.0 
			0.46194 0.191342 0.0 
			0.353553 0.353553 0.0 
			0.191342 0.46194 0.0 
			-2.18557e-08 0.5 0.0 
			-0.191342 0.46194 0.0 
			-0.353553 0.353553 0.0 
			-0.46194 0.191342 0.0 
			-0.5 -4.37114e-08 0.0 
			-0.46194 -0.191342 0.0 
			-0.353553 -0.353553 0.0 
			-0.191342 -0.46194 0.0 
			6.55671e-08 -0.5 0.0 
			0.191342 -0.46194 0.0 
			0.353553 -0.353553 0.0 
			0.46194 -0.191342 0.0 
			0.884503 0.175939 0.0 
			0.749846 0.501031 0.0 
			0.501031 0.749846 0.0 
			0.175939 0.884503 0.0 
			-0.175939 0.884503 0.0 
			-0.501031 0.749846 0.0 
			-0.749846 0.501031 0.0 
			-0.884503 0.175939 0.0 
			-0.884503 -0.175939 0.0 
			-0.749846 -0.501031 0.0 
			-0.501031 -0.749846 0.0 
			-0.175939 -0.884503 0.0 
			0.175939 -0.884503 0.0 
			0.501031 -0.749846 0.0 
			0.749846 -0.501031 0.0 
			0.884503 -0.175938 0.0 
			2.20148 0 0.0 
			2.0339 0.842468 0.0 
			1.55668 1.55668 0.0 
			0.842468 2.0339 0.0 
			-9.62295e-08 2.20148 0.0 
			-0.842468 2.0339 0.0 
			-1.55668 1.55668 0.0 
			-2.0339 0.842468 0.0 
			-2.20148 -1.92459e-07 0.0 
			-2.0339 -0.842468 0.0 
			-1.55668 -1.55668 0.0 
			-0.842468 -2.0339 0.0 
			2.88689e-07 -2.20148 0.0 
			0.842468 -2.0339 0.0 
			1.55668 -1.55668 0.0 
			2.0339 -0.842468 0.0 
			6.28184 1.24954 0.0 
			5.32549 3.55838 0.0 
			3.55838 5.32549 0.0 
			1.24954 6.28184 0.0 
			-1.24954 6.28184 0.0 
			-3.55838 5.32549 0.0 
			-5.32549 3.55838 0.0 
			-6.28184 1.24954 0.0 
			-6.28184 -1.24954 0.0 
			-5.32549 -3.55838 0.0 
			-3.55838 -5.32549 0.0 
			-1.24954 -6.28184 0.0 
			1.24954 -6.28184 0.0 
			3.55838 -5.32549 0.0 
			5.32549 -3.55838 0.0 
			6.28184 -1.24953 0.0 
			20.0001 0 0.0 
			18.4777 7.6537 0.0 
			14.1422 14.1422 0.0 
			7.6537 18.4777 0.0 
			-8.74231e-07 20.0001 0.0 
			-7.6537 18.4777 0.0 
			-14.1422 14.1422 0.0 
			-18.4777 7.65369 0.0 
			-20.0001 -1.74846e-06 0.0 
			-18.4777 -7.6537 0.0 
			-14.1422 -14.1422 0.0 
			-7.65369 -18.4777 0.0 
			2.62269e-06 -20.0001 0.0 
			7.6537 -18.4777 0.0 
			14.1422 -14.1422 0.0 
			18.4777 -7.65369 0.0 
		</DataArray>
		</Points>
		<Cells>
			<DataArray type="UInt32" Name="connectivity" Format="ascii">
				0 16 1 
				0 31 16 
				1 17 2 
				1 16 17 
				2 18 3 
				2 17 18 
				3 19 4 
				3 18 19 
				4 20 5 
				4 19 20 
				5 21 6 
				5 20 21 
				6 22 7 
				6 21 22 
				7 23 8 
				7 22 23 
				8 24 9 
				8 23 24 
				9 25 10 
				9 24 25 
				10 26 11 
				10 25 26 
				11 27 12 
				11 26 27 
				12 28 13 
				12 27 28 
				13 29 14 
				13 28 29 
				14 30 15 
				14 29 30 
				15 31 0 
				15 30 31 
				16 32 33 
				16 31 32 
				17 33 34 
				17 16 33 
				18 34 35 
				18 17 34 
				19 35 36 
				19 18 35 
				20 36 37 
				20 19 36 
				21 37 38 
				21 20 37 
				22 38 39 
				22 21 38 
				23 39 40 
				23 22 39 
				24 40 41 
				24 23 40 
				25 41 42 
				25 24 41 
				26 42 43 
				26 25 42 
				27 43 44 
				27 26 43 
				28 44 45 
				28 27 44 
				29 45 46 
				29 28 45 
				30 46 47 
				30 29 46 
				31 47 32 
				31 30 47 
				32 48 33 
				32 63 48 
				33 49 34 
				33 48 49 
				34 50 35 
				34 49 50 
				35 51 36 
				35 50 51 
				36 52 37 
				36 51 52 
				37 53 38 
				37 52 53 
				38 54 39 
				38 53 54 
				39 55 40 
				39 54 55 
				40 56 41 
				40 55 56 
				41 57 42 
				41 56 57 
				42 58 43 
				42 57 58 
				43 59 44 
				43 58 59 
				44 60 45 
				44 59 60 
				45 61 46 
				45 60 61 
				46 62 47 
				46 61 62 
				47 63 32 
				47 62 63 
				48 64 65 
				48 63 64 
				49 65 66 
				49 48 65 
				50 66 67 
				50 49 66 
				51 67 68 
				51 50 67 
				52 68 69 
				52 51 68 
				53 69 70 
				53 52 69 
				54 70 71 
				54 53 70 
				55 71 72 
				55 54 71 
				56 72 73 
				56 55 72 
				57 73 74 
				57 56 73 
				58 74 75 
				58 57 74 
				59 75 76 
				59 58 75 
				60 76 77 
				60 59 76 
				61 77 78 
				61 60 77 
				62 78 79 
				62 61 78 
				63 79 64 
				63 62 79 
			</DataArray>
			<DataArray type="UInt32" Name="offsets" Format="ascii">
				3
				6
				9
				12
				15
				18
				21
				24
				27
				30
				33
				36
				39
				42
				45
				48
				51
				54
				57
				60
				63
				66
				69
				72
				75
				78
				81
				84
				87
				90
				93
				96
				99
				102
				105
				108
				111
				114
				117
				120
				123
				126
				129
				132
				135
				138
				141
				144
				147
				150
				153
				156
				159
				162
				165
				168
				171
				174
				177
				180
				183
				186
				189
				192
				195
				198
				201
				204
				207
				210
				213
				216
				219
				222
				225
				228
				231
				234
				237
				240
				243
				246
				249
				252
				255
				258
				261
				264
				267
				270
				273
				276
				279
				282
				285
				288
				291
				294
				297
				300
				303
				306
				309
				312
				315
				318
				321
				324
				327
				330
				333
				336
				339
				342
				345
				348
				351
				354
				357
				360
				363
				366
				369
				372
				375
				378
				381
				384
			</DataArray>
			<DataArray type="Int32" Name="types" Format="ascii">
				5
				5
				5
				5
				5
				5
				5
				5
				5
				5
				5
				5
				5
				5
				5
				5
				5
				5
				5
				5
				5
				5
				5
				5
				5
				5
				5
				5
				5
				5
				5
				5
				5
				5
				5
				5
				5
				5
				5
				5
				5
				5
				5
				5
				5
				5
				5
				5
				5
				5
				5
				5
				5
				5
				5
				5
				5
				5
				5
				5
				5
				5
				5
				5
				5
				5
				5
				5
				5
				5
				5
				5
				5
				5
				5
				5
				5
				5
				5
				5
				5
				5
				5
				5
				5
				5
				5
				5
				5
				5
				5
				5
				5
				5
				5
				5
				5
				5
				5
				5
				5
				5
				5
				5
				5
				5
				5
				5
				5
				5
				5
				5
				5
				5
				5
				5
				5
				5
				5
				5
				5
				5
				5
				5
				5
				5
				5
				5
			</DataArray>
		</Cells>
	</Piece>
</UnstructuredGrid>
</VTKFile>