<VTKFile type="UnstructuredGrid" version="0.1" byte_order="LittleEndian">
<UnstructuredGrid>
	<Piece NumberOfPoints="1088" NumberOfCells="2048">
		<CellData Scalars="density" Vectors="velocity">
			<DataArray type="Float64" Name="density" Format="ascii">
				0.890097
				0.862693
				0.985505
				0.95364
				1.12943
				1.05278
				1.20804
				1.17284
				1.19581
				1.19895
				1.16249
				1.16361
				1.05792
				1.1124
				0.919216
				0.978535
				0.839447
				0.87322
				0.840176
				0.838368
				0.883469
				0.869437
				0.941274
				0.918887
				1.04526
				0.979255
				1.02212
				1.13761
				0.785852
				0.903948
				0.795128
				0.783863
				0.911581
				0.828294
				1.10499
				1.00267
				0.902338
				1.13285
				0.747415
				0.832007
				0.800897
				0.79597
				0.892188
				0.861942
				1.03112
				0.95846
				1.19705
				1.10138
				1.2359
				1.1888
				1.15552
				1.16532
				1.0653
				1.11173
				0.995366
				1.05548
				0.958814
				1.00383
				0.953023
				0.972638
				0.954245
				0.966299
				0.962173
				0.961934
				0.96434
				0.959849
				0.947582
				0.955125
				0.907951
				0.945964
				0.868835
				0.925848
				0.865912
				0.900057
				0.906463
				0.899024
				0.953665
				0.933499
				0.961899
				0.968003
				0.915923
				0.960445
				0.835177
				0.904856
				0.746336
				0.826698
				0.662485
				0.747438
				0.590444
				0.672679
				0.542243
				0.609441
				0.511951
				0.567934
				0.478003
				0.540479
				0.425025
				0.502331
				0.367486
				0.44511
				nan
				0.391207
				-nan
				nan
				nan
				nan
				0.83672
				0.813646
				0.899115
				0.910856
				0.919842
				0.939607
				0.903715
				0.924601
				0.908829
				0.924441
				0.910783
				0.918784
				0.924953
				0.91841
				0.904697
				0.92418
				0.814675
				0.879282
				0.784228
				0.801589
				0.822897
				0.81454
				0.930622
				0.888823
				1.02127
				0.986322
				1.10455
				1.08171
				1.14537
				1.15351
				1.14437
				1.17128
				1.12003
				1.15751
				1.02171
				1.11687
				0.867903
				0.949737
				0.827632
				0.844282
				0.862347
				0.839288
				0.919126
				0.883006
				0.982277
				0.921217
				1.13362
				1.0206
				1.05426
				1.16741
				0.845135
				0.917085
				0.84692
				0.820615
				0.920868
				0.863629
				1.04014
				0.968576
				1.09949
				1.10972
				0.944499
				0.979753
				0.918111
				0.875373
				0.97982
				0.926926
				1.03215
				1.01847
				1.02953
				1.0782
				1.01303
				1.06259
				1.03926
				1.05319
				1.08302
				1.08197
				1.09954
				1.09726
				1.0681
				1.07047
				1.01875
				1.02335
				0.986362
				0.98508
				0.970449
				0.972391
				0.962071
				0.95622
				0.965751
				0.942709
				0.987978
				0.946902
				1.00922
				0.97099
				1.00251
				0.990386
				0.977935
				0.987586
				0.966928
				0.978521
				0.969984
				0.975517
				0.959198
				0.964258
				0.91727
				0.926954
				0.854065
				0.865663
				0.790451
				0.799099
				0.733898
				0.740432
				0.679276
				0.685826
				0.625976
				0.630937
				0.582993
				0.579506
				0.555604
				0.537014
				0.542626
				0.506087
				-nan
				0.48879
				-nan
				-nan
				-nan
				-nan
				0.920495
				0.886511
				0.985249
				0.951261
				1.00493
				0.995688
				0.950425
				0.959654
				0.935132
				0.926748
				0.941921
				0.927772
				0.940144
				0.936238
				0.906605
				0.925756
				0.851334
				0.882658
				0.822842
				0.828646
				0.865529
				0.842671
				0.923858
				0.892194
				0.997457
				0.958139
				1.06447
				1.02373
				1.10507
				1.07597
				1.11793
				1.11026
				1.08283
				1.09444
				0.997582
				1.06597
				0.844233
				0.918032
				0.811213
				0.825326
				0.852401
				0.843422
				0.909838
				0.892132
				0.98689
				0.935975
				1.15575
				1.05834
				1.07055
				1.22332
				0.854399
				0.942345
				0.864714
				0.855031
				0.919228
				0.887411
				0.991456
				0.928634
				1.12858
				1.06473
				1.06376
				1.16988
				0.974458
				1.0254
				0.987637
				0.969511
				0.98395
				0.969201
				0.958457
				0.952323
				0.956248
				0.944954
				0.989934
				0.964286
				1.05461
				1.01207
				1.12855
				1.08858
				1.14725
				1.16065
				1.09516
				1.15441
				1.04056
				1.09033
				1.0159
				1.04321
				1.01298
				1.02834
				1.01826
				1.02657
				1.03029
				1.02424
				1.03826
				1.02377
				1.01659
				1.0192
				0.964704
				0.985807
				0.924204
				0.933474
				0.924921
				0.909594
				0.941908
				0.926775
				0.9332
				0.943974
				0.886547
				0.923176
				0.820779
				0.866174
				0.757297
				0.800458
				0.701753
				0.744533
				0.65516
				0.700248
				0.625855
				0.670549
				0.617863
				0.662053
				0.621659
				0.670147
				0.629675
				0.679546
				0.752529
				0.706326
				0.860846
				0.843668
				0.897176
				0.873473
				0.977247
				0.938023
				1.01336
				1.0188
				0.972282
				1.00573
				0.956277
				0.980848
				0.952439
				0.974112
				0.933999
				0.953426
				0.898069
				0.923367
				0.862948
				0.893264
				0.852507
				0.872453
				0.874286
				0.879789
				0.934209
				0.912472
				0.986556
				0.966638
				1.04183
				1.02508
				1.08121
				1.06858
				1.10492
				1.09207
				1.10261
				1.10042
				0.986514
				1.06684
				0.864105
				0.909311
				0.857757
				0.839066
				0.909053
				0.868877
				0.948998
				0.922885
				0.996675
				0.941723
				1.16384
				1.06367
				1.0914
				1.2238
				0.896539
				0.962697
				0.888294
				0.880453
				0.917958
				0.893101
				0.977602
				0.927389
				1.0941
				1.02128
				1.17835
				1.17269
				1.04916
				1.13549
				0.944934
				0.986159
				0.929354
				0.932934
				0.944765
				0.92626
				0.974686
				0.943664
				1.01437
				0.977757
				1.0656
				1.02363
				1.14149
				1.08837
				1.22091
				1.17583
				1.21522
				1.22132
				1.13544
				1.17304
				1.06599
				1.10015
				1.02886
				1.05931
				1.005
				1.03974
				0.982408
				1.02204
				0.961145
				0.999732
				0.940841
				0.974165
				0.923173
				0.94567
				0.920536
				0.924123
				0.940013
				0.926814
				0.96378
				0.949444
				0.964859
				0.96334
				0.932857
				0.944903
				0.87921
				0.894416
				0.825008
				0.831048
				0.786045
				0.775993
				0.767269
				0.741564
				0.765987
				0.731805
				0.77433
				0.742177
				0.787215
				0.761627
				0.807071
				0.785392
				0.837364
				0.815507
				0.893223
				0.862642
				0.942297
				0.900304
				1.01909
				0.964521
				1.04266
				1.03083
				1.02143
				1.01848
				1.00514
				1.00611
				0.973055
				0.992903
				0.931584
				0.955618
				0.902567
				0.90937
				0.891749
				0.884482
				0.892939
				0.88043
				0.907418
				0.89686
				0.928645
				0.922853
				0.968454
				0.950703
				1.01846
				0.994146
				1.05887
				1.04119
				1.0984
				1.07513
				1.11409
				1.12554
				1.00245
				1.10647
				0.875122
				0.950256
				0.863838
				0.871602
				0.910717
				0.889815
				0.950058
				0.931766
				1.00077
				0.950761
				1.15669
				1.0551
				1.11267
				1.22505
				0.918311
				1.01296
				0.902171
				0.908554
				0.931706
				0.915816
				0.974067
				0.93897
				1.06024
				0.987526
				1.17892
				1.12176
				1.0931
				1.18921
				0.961774
				1.02313
				0.945714
				0.948259
				0.967256
				0.954724
				0.995503
				0.976432
				1.02473
				1.00107
				1.05692
				1.02608
				1.11082
				1.05919
				1.19017
				1.12239
				1.20233
				1.18027
				1.12182
				1.14453
				1.03631
				1.05115
				0.990004
				0.987209
				0.966851
				0.960002
				0.951488
				0.948066
				0.943895
				0.942058
				0.94412
				0.944144
				0.943833
				0.951712
				0.941623
				0.954012
				0.949196
				0.954813
				0.968746
				0.968371
				0.981661
				0.990306
				0.968955
				0.997632
				0.930761
				0.975844
				0.883555
				0.93241
				0.844293
				0.886082
				0.8206
				0.851212
				0.811838
				0.833715
				0.812094
				0.831776
				0.813495
				0.835346
				0.818018
				0.836053
				0.840694
				0.845286
				0.880604
				0.87183
				0.935459
				0.903275
				1.00878
				0.973526
				1.03884
				1.02862
				1.02982
				1.03336
				1.00393
				1.0227
				0.962981
				0.990636
				0.925916
				0.946667
				0.912955
				0.92195
				0.915154
				0.927556
				0.914628
				0.932488
				0.916254
				0.92746
				0.942657
				0.944629
				0.96071
				0.951921
				0.999404
				0.980831
				1.04286
				1.0168
				1.10053
				1.05708
				1.14027
				1.12432
				1.05799
				1.11939
				0.951132
				0.993322
				0.914341
				0.91634
				0.935427
				0.917713
				0.958404
				0.947245
				0.990986
				0.955217
				1.1064
				1.0337
				1.13294
				1.17959
				0.976052
				1.05036
				0.929789
				0.934628
				0.939786
				0.927023
				0.971378
				0.941723
				1.0371
				0.988698
				1.12573
				1.09007
				1.11126
				1.16201
				0.993386
				1.0535
				0.946171
				0.961685
				0.947951
				0.949266
				0.963411
				0.959787
				0.987305
				0.979722
				1.01914
				1.01119
				1.05516
				1.0527
				1.0873
				1.09632
				1.09208
				1.117
				1.05415
				1.08751
				1.00269
				1.02607
				0.971474
				0.977767
				0.962194
				0.956921
				0.964196
				0.953021
				0.970804
				0.956465
				0.978742
				0.96222
				0.987258
				0.968725
				1.00081
				0.977991
				1.02365
				0.995948
				1.04771
				1.02251
				1.05577
				1.04368
				1.03787
				1.04249
				0.999677
				1.01508
				0.955869
				0.972904
				0.918292
				0.931181
				0.891647
				0.89882
				0.875079
				0.878748
				0.862972
				0.868722
				0.852231
				0.861955
				0.849701
				0.856963
				0.860477
				0.859775
				0.893113
				0.873624
				0.952574
				0.912336
				1.01571
				0.978067
				1.04855
				1.03134
				1.04428
				1.04463
				1.01188
				1.02633
				0.968269
				0.985489
				0.937506
				0.941978
				0.940624
				0.924788
				0.958565
				0.943837
				0.957946
				0.960684
				0.944279
				0.954279
				0.922689
				0.933343
				0.933747
				0.921793
				0.971749
				0.949932
				1.026
				0.988918
				1.10575
				1.05556
				1.1522
				1.14642
				1.07061
				1.13999
				0.973469
				1.03462
				0.924847
				0.954041
				0.928577
				0.921877
				0.952093
				0.932642
				0.990723
				0.951807
				1.08468
				1.01141
				1.14518
				1.14805
				1.01357
				1.11907
				0.940934
				0.970724
				0.945184
				0.936988
				0.971089
				0.94612
				1.01526
				0.971451
				1.0901
				1.03402
				1.11583
				1.12518
				1.01662
				1.0888
				0.951635
				0.978265
				0.947071
				0.943857
				0.961289
				0.949022
				0.978608
				0.963516
				0.995132
				0.979713
				1.01396
				0.997728
				1.04658
				1.0254
				1.08214
				1.07037
				1.07857
				1.09606
				1.03793
				1.06815
				1.00195
				1.02116
				0.986702
				0.993583
				0.983779
				0.984275
				0.98648
				0.982661
				0.992875
				0.985172
				0.998768
				0.989344
				1.00264
				0.990201
				1.01125
				0.991726
				1.02728
				1.00398
				1.03945
				1.02401
				1.03336
				1.03461
				1.00629
				1.02269
				0.967705
				0.990809
				0.929211
				0.951051
				0.898354
				0.914341
				0.878974
				0.889051
				0.869744
				0.880068
				0.865248
				0.883219
				0.860597
				0.885401
				0.859541
				0.876551
				0.881501
				0.872298
				0.936343
				0.901712
				1.00522
				0.966629
				1.05554
				1.03606
				1.06495
				1.0756
				1.03657
				1.07124
				0.990452
				1.03245
				0.955383
				0.980902
				0.957652
				0.957367
				0.975657
				0.97618
				0.967707
				0.989646
				0.942718
				0.956731
				0.94022
				0.958571
				0.936666
				0.932501
				0.963033
				0.944513
				1.01797
				0.976329
				1.08676
				1.04446
				1.13038
				1.12697
				1.0735
				1.12251
				1.01187
				1.04566
				0.952323
				0.985908
				0.929847
				0.936772
				0.943448
				0.932045
				0.975353
				0.946665
				1.0462
				0.994482
				1.12798
				1.1059
				1.05688
				1.13066
				0.958217
				0.99856
				0.943549
				0.944339
				0.959373
				0.94546
				0.996095
				0.967382
				1.05732
				1.02122
				1.09628
				1.09659
				1.03547
				1.08604
				0.965027
				0.993541
				0.947449
				0.949862
				0.953898
				0.946696
				0.9697
				0.956288
				0.99408
				0.974606
				1.02734
				1.00404
				1.06661
				1.04454
				1.09329
				1.08888
				1.07667
				1.10118
				1.02941
				1.0636
				0.990404
				1.01444
				0.97113
				0.985483
				0.963431
				0.974195
				0.960793
				0.971085
				0.958997
				0.971162
				0.954741
				0.968882
				0.956643
				0.963222
				0.979617
				0.968645
				1.01926
				0.996958
				1.0512
				1.03443
				1.05516
				1.05452
				1.02955
				1.043
				0.987856
				1.0061
				0.945989
				0.960587
				0.9145
				0.920536
				0.899689
				0.895244
				0.902163
				0.890432
				0.911441
				0.902153
				0.909698
				0.911198
				0.898566
				0.901078
				0.908085
				0.890675
				0.955682
				0.914296
				1.02385
				0.975671
				1.078
				1.04436
				1.09426
				1.0838
				1.07627
				1.08309
				1.0361
				1.05267
				0.994843
				1.00671
				0.979307
				0.976673
				0.985886
				0.981728
				0.9843
				0.99493
				0.962287
				0.975943
				0.922792
				0.941168
				0.917701
				0.909194
				0.944664
				0.921914
				1.01195
				0.963576
				1.08101
				1.03308
				1.11689
				1.10371
				1.06975
				1.10302
				1.02227
				1.05933
				0.951901
				1.00195
				0.917524
				0.926777
				0.935966
				0.916237
				0.976613
				0.944759
				1.03921
				0.989486
				1.12231
				1.08259
				1.07147
				1.14166
				0.96232
				1.0156
				0.941826
				0.943005
				0.956686
				0.941281
				0.98664
				0.95836
				1.04151
				0.999681
				1.09644
				1.07707
				1.05782
				1.10514
				0.981347
				1.02241
				0.956206
				0.964034
				0.961203
				0.955711
				0.975641
				0.965169
				0.994659
				0.981163
				1.01938
				1.00306
				1.05197
				1.03389
				1.07953
				1.07086
				1.06905
				1.08208
				1.02498
				1.04666
				0.984535
				0.997738
				0.962599
				0.966509
				0.952462
				0.95214
				0.948063
				0.945921
				0.946445
				0.944606
				0.943562
				0.944191
				0.945221
				0.941836
				0.967552
				0.950454
				1.01138
				0.985319
				1.05359
				1.03577
				1.06918
				1.07186
				1.0509
				1.07251
				1.01108
				1.04062
				0.968527
				0.995837
				0.936684
				0.956528
				0.923252
				0.933842
				0.928394
				0.933742
				0.937513
				0.9489
				0.930322
				0.95393
				0.911838
				0.933922
				0.913726
				0.913169
				0.954418
				0.92686
				1.01932
				0.980172
				1.07428
				1.04514
				1.09392
				1.08524
				1.07937
				1.08909
				1.04184
				1.06371
				1.00231
				1.02202
				0.984304
				0.990252
				0.985621
				0.986229
				0.978364
				0.991154
				0.954135
				0.964489
				0.938558
				0.959463
				0.922868
				0.924923
				0.945711
				0.920031
				0.99565
				0.960341
				1.04718
				1.01494
				1.08411
				1.07608
				1.06386
				1.08304
				1.03943
				1.06194
				0.971201
				1.01962
				0.927727
				0.939529
				0.94286
				0.921993
				0.979609
				0.949461
				1.02896
				0.989055
				1.10175
				1.0687
				1.07086
				1.12879
				0.970563
				1.02104
				0.946063
				0.948596
				0.957625
				0.943856
				0.987707
				0.959762
				1.04221
				1.00307
				1.08973
				1.07753
				1.05068
				1.09772
				0.980479
				1.01805
				0.956503
				0.962806
				0.961377
				0.953609
				0.978332
				0.962592
				1.00466
				0.981891
				1.04019
				1.01272
				1.07913
				1.05563
				1.09293
				1.09645
				1.05434
				1.08937
				0.997597
				1.03145
				0.962241
				0.978388
				0.94779
				0.952301
				0.943282
				0.942521
				0.943559
				0.939801
				0.946227
				0.940977
				0.949917
				0.942592
				0.962695
				0.946419
				0.995874
				0.967087
				1.04255
				1.01245
				1.0776
				1.06366
				1.08041
				1.09006
				1.05169
				1.07712
				1.00968
				1.03654
				0.973118
				0.991722
				0.951296
				0.959095
				0.945141
				0.944973
				0.947585
				0.947707
				0.945369
				0.954704
				0.932195
				0.948483
				0.92067
				0.928237
				0.932266
				0.917737
				0.973681
				0.940727
				1.0275
				0.994123
				1.06637
				1.04997
				1.07653
				1.08032
				1.06153
				1.07957
				1.03124
				1.05488
				1.00044
				1.01857
				0.983743
				0.99022
				0.982593
				0.984283
				0.980574
				0.990024
				0.963116
				0.97391
				0.923964
				0.940528
				0.912282
				0.913315
				0.947671
				0.922357
				1.00433
				0.970615
				1.0562
				1.02441
				1.08585
				1.0774
				1.0675
				1.0822
				1.04228
				1.06949
				0.96635
				1.02039
				0.923981
				0.937139
				0.944494
				0.924625
				0.98443
				0.956717
				1.03161
				0.994093
				1.10076
				1.06413
				1.07165
				1.12183
				0.972858
				1.02364
				0.947245
				0.952512
				0.957765
				0.946151
				0.98658
				0.961195
				1.03902
				1.00195
				1.08599
				1.06887
				1.05095
				1.08531
				0.983652
				1.01401
				0.960118
				0.964208
				0.965229
				0.957292
				0.98188
				0.968391
				1.00654
				0.988893
				1.03985
				1.01915
				1.07786
				1.05959
				1.09197
				1.09417
				1.05604
				1.08194
				1.00311
				1.02847
				0.970058
				0.982987
				0.956552
				0.961346
				0.95252
				0.953655
				0.953257
				0.952305
				0.956833
				0.955149
				0.961175
				0.959889
				0.970518
				0.965712
				0.993626
				0.979737
				1.02774
				1.0077
				1.0548
				1.03933
				1.05802
				1.05501
				1.03683
				1.04511
				1.00474
				1.01746
				0.976498
				0.987739
				0.959801
				0.967395
				0.95432
				0.959617
				0.952886
				0.959872
				0.946437
				0.958396
				0.934509
				0.948681
				0.929169
				0.936885
				0.944385
				0.938114
				0.981047
				0.961753
				1.02371
				1.0007
				1.05254
				1.03567
				1.05871
				1.05215
				1.0448
				1.04861
				1.01989
				1.03013
				0.996964
				1.00693
				0.986034
				0.99114
				0.983445
				0.988213
				0.973015
				0.986189
				0.952458
				0.960739
				0.945407
				0.957231
				0.938879
				0.92792
				0.968311
				0.935111
				1.00787
				0.976683
				1.04901
				1.02082
				1.07259
				1.07013
				1.05663
				1.07272
				1.0373
				1.06293
				0.976155
				1.02171
				0.938392
				0.947249
				0.95436
				0.93351
				0.985354
				0.96113
				1.02444
				0.991099
				1.08427
				1.05853
				1.05395
				1.1071
				0.973431
				1.01581
				0.95407
				0.955179
				0.965487
				0.950308
				0.996156
				0.966431
				1.0469
				1.01174
				1.07172
				1.07593
				1.01638
				1.06694
				0.960656
				0.989284
				0.948773
				0.950468
				0.959698
				0.949505
				0.98165
				0.964493
				1.01274
				0.990805
				1.05074
				1.02968
				1.08276
				1.0765
				1.07655
				1.10191
				1.02987
				1.06869
				0.986308
				1.00988
				0.964488
				0.97208
				0.956546
				0.956309
				0.954865
				0.950994
				0.956763
				0.95045
				0.961777
				0.953001
				0.971725
				0.95847
				0.991215
				0.97147
				1.0197
				0.998422
				1.04508
				1.03383
				1.0523
				1.05852
				1.03745
				1.05709
				1.01044
				1.0324
				0.984803
				1.00045
				0.968358
				0.975362
				0.962118
				0.96244
				0.962247
				0.960086
				0.962151
				0.961859
				0.95742
				0.959731
				0.951572
				0.951143
				0.954885
				0.944363
				0.974638
				0.952661
				1.00615
				0.980493
				1.03473
				1.01678
				1.04796
				1.04346
				1.04422
				1.05105
				1.02875
				1.04149
				1.00928
				1.0217
				0.99354
				1.00094
				0.98678
				0.988652
				0.985961
				0.988143
				0.980646
				0.988914
				0.966607
				0.968879
				0.944702
				0.954071
				0.947914
				0.94507
				0.986225
				0.964472
				1.02529
				1.00271
				1.06084
				1.04025
				1.07056
				1.07012
				1.05138
				1.06048
				1.02544
				1.04836
				0.963489
				1.00249
				0.934564
				0.94164
				0.955325
				0.937066
				0.989308
				0.966486
				1.03292
				1.00121
				1.08561
				1.06447
				1.04451
				1.08918
				0.96975
				1.0032
				0.953171
				0.954345
				0.966136
				0.95234
				1.00035
				0.97369
				1.05276
				1.02292
				1.07348
				1.07876
				1.01605
				1.05863
				0.961776
				0.986243
				0.949699
				0.952213
				0.95942
				0.951613
				0.979264
				0.965693
				1.00594
				0.988606
				1.03647
				1.01788
				1.06032
				1.04726
				1.05614
				1.05955
				1.02395
				1.04006
				0.992541
				1.00683
				0.975672
				0.983992
				0.969421
				0.974052
				0.968488
				0.971325
				0.970599
				0.972175
				0.975632
				0.975423
				0.985158
				0.981689
				1.00055
				0.992857
				1.01852
				1.00843
				1.03071
				1.02264
				1.03023
				1.02772
				1.01771
				1.02075
				1.0001
				1.00602
				0.984592
				0.990793
				0.975013
				0.980141
				0.971802
				0.975776
				0.972275
				0.976436
				0.971875
				0.978087
				0.968418
				0.97672
				0.965811
				0.972883
				0.971587
				0.972751
				0.989307
				0.982589
				1.01361
				1.00198
				1.03321
				1.02254
				1.04003
				1.0343
				1.03415
				1.03408
				1.02035
				1.02477
				1.00505
				1.01132
				0.993805
				0.999171
				0.988595
				0.99244
				0.984381
				0.990134
				0.973108
				0.984239
				0.960554
				0.966139
				0.965373
				0.96586
				0.973305
				0.954081
				0.997905
				0.976288
				1.02417
				1.00563
				1.04732
				1.03783
				1.04554
				1.05972
				1.02865
				1.04471
				1.01103
				1.03467
				0.97028
				0.998234
				0.950958
				0.95044
				0.968569
				0.946891
				0.997225
				0.972029
				1.03775
				1.00579
				1.07139
				1.06924
				1.01869
				1.07172
				0.963312
				0.988494
				0.956204
				0.952451
				0.97275
				0.954383
				1.01002
				0.979381
				1.05766
				1.0339
				1.05933
				1.08083
				1.00328
				1.04314
				0.965538
				0.977851
				0.960754
				0.953705
				0.972119
				0.956822
				0.992133
				0.973417
				1.01707
				1.00039
				1.03815
				1.03294
				1.04018
				1.05407
				1.02043
				1.04442
				0.997751
				1.0146
				0.984829
				0.990633
				0.980221
				0.979288
				0.979997
				0.975701
				0.982123
				0.975968
				0.985989
				0.978587
				0.991653
				0.983309
				0.999946
				0.991053
				1.01047
				1.00326
				1.01918
				1.01761
				1.02069
				1.02683
				1.01336
				1.02483
				1.00074
				1.01252
				0.988294
				0.996424
				0.979879
				0.983136
				0.976658
				0.975888
				0.977535
				0.974626
				0.979759
				0.976796
				0.980688
				0.978487
				0.980658
				0.977613
				0.983651
				0.976989
				0.993301
				0.982594
				1.00824
				0.997076
				1.02227
				1.01594
				1.02871
				1.03029
				1.0258
				1.0337
				1.01692
				1.02724
				1.00615
				1.01572
				0.996818
				1.00353
				0.991212
				0.99448
				0.989341
				0.990807
				0.987408
				0.990396
				0.981355
				0.986267
				0.97528
				0.971396
				0.972298
				0.975697
				0.98737
				0.978958
				1.01153
				0.997589
				1.03336
				1.02011
				1.04642
				1.0395
				1.03569
				1.04293
				1.01881
				1.02689
				0.996965
				1.01535
				0.960929
				0.982864
				0.95107
				0.950841
				0.974249
				0.95607
				1.00784
				0.98541
				1.04887
				1.02257
				1.06763
				1.06857
				1.01087
				1.05235
				0.961991
				0.984942
				0.956574
				0.956519
				0.975452
				0.960619
				1.01184
				0.985953
				1.05022
				1.02743
				1.04775
				1.05464
				1.00497
				1.03004
				0.97679
				0.991703
				0.973778
				0.977054
				0.983838
				0.980185
				0.998989
				0.991275
				1.01375
				1.0046
				1.02155
				1.01506
				1.01722
				1.01687
				1.00524
				1.00935
				0.995067
				0.999661
				0.990053
				0.993603
				0.988962
				0.991521
				0.99005
				0.991883
				0.992333
				0.993448
				0.995498
				0.995669
				0.999407
				0.998341
				1.0039
				1.00133
				1.00798
				1.00431
				1.00959
				1.00623
				1.00719
				1.00565
				1.00137
				1.0021
				0.994304
				0.99673
				0.988131
				0.991339
				0.984255
				0.987419
				0.983297
				0.985907
				0.984849
				0.986973
				0.987367
				0.989642
				0.989172
				0.992111
				0.990292
				0.993251
				0.992805
				0.993944
				0.998589
				0.996399
				1.00677
				1.0015
				1.01389
				1.0076
				1.0162
				1.0114
				1.01296
				1.01057
				1.0065
				1.00616
				0.99925
				1.00037
				0.993218
				0.994716
				0.98987
				0.99087
				0.988595
				0.989699
				0.98611
				0.989337
				0.98019
				0.986235
				0.977406
				0.979873
				0.987504
				0.981542
				0.998335
				0.985254
				1.01081
				1.00139
				1.02177
				1.01847
				1.02582
				1.03224
				1.01719
				1.03045
				1.00968
				1.01762
				1.00136
				1.01066
				0.98367
				0.989725
				0.97552
				0.966756
				0.986837
				0.968846
				1.00709
				0.991596
				1.02904
				1.02314
				1.02999
				1.0486
				1.00304
				1.02568
				0.985699
				0.987569
				0.985045
				0.97464
				0.995836
				0.980486
				1.01425
				1.00265
				1.02232
				1.02811
				1.00975
				1.0266
				0.996235
				1.00382
				0.993067
				0.990037
				0.996191
				0.989288
				1.0019
				0.995219
				1.0077
				1.00423
				1.00999
				1.01199
				1.00665
				1.01292
				1.0006
				1.00646
				0.99635
				0.998532
				0.995186
				0.99404
				0.996049
				0.993256
				0.997764
				0.9946
				0.999607
				0.996811
				1.00122
				0.999201
				1.00242
				1.0015
				1.00295
				1.00347
				1.00244
				1.00464
				1.00057
				1.0042
				0.997681
				1.00172
				0.994804
				0.99794
				0.992817
				0.99431
				0.991809
				0.991721
				0.99139
				0.990088
				0.991372
				0.989116
				0.99194
				0.988949
				0.993256
				0.989941
				0.995114
				0.992026
				0.997123
				0.994623
				0.999171
				0.997304
				1.00144
				1.00031
				1.00361
				1.00393
				1.00461
				1.00722
				1.00351
				1.00851
				1.00015
				1.00662
				0.995744
				1.0019
				0.99193
				0.996496
				0.989262
				0.992041
				0.987772
				0.988894
				0.987427
				0.987306
				0.987633
				0.987048
				0.987303
				0.9866
				0.986579
				0.984221
				0.989614
				0.981336
			</DataArray>
			<DataArray type="Float64" Name="mach-number" Format="ascii">
				0.04341
				0.113567
				0.0660126
				0.0632689
				0.129127
				0.0709781
				0.168498
				0.150747
				0.176789
				0.180009
				0.191988
				0.208546
				0.122433
				0.184741
				0.061273
				0.0387279
				0.177558
				0.185389
				0.229623
				0.258271
				0.247206
				0.296476
				0.243646
				0.303489
				0.184419
				0.25955
				0.246843
				0.124103
				0.56352
				0.431857
				0.573695
				0.629466
				0.443507
				0.590115
				0.276946
				0.367041
				0.440235
				0.24279
				0.638578
				0.565797
				0.570516
				0.613882
				0.456133
				0.549119
				0.311401
				0.442299
				0.193003
				0.284295
				0.174585
				0.156946
				0.195487
				0.177475
				0.187117
				0.209199
				0.15647
				0.192243
				0.116454
				0.145783
				0.0770709
				0.0987169
				0.0199307
				0.0686149
				0.0864923
				0.0556827
				0.152383
				0.120146
				0.21739
				0.18953
				0.280217
				0.246807
				0.344054
				0.289068
				0.425338
				0.344571
				0.532833
				0.443885
				0.649592
				0.569961
				0.751549
				0.689373
				0.828333
				0.78006
				0.88711
				0.840303
				0.941302
				0.883541
				0.998029
				0.922984
				1.06172
				0.963464
				1.13677
				1.0148
				1.23005
				1.09245
				1.32077
				1.18375
				1.39023
				1.25838
				1.45032
				1.30587
				nan
				1.34974
				-nan
				nan
				nan
				nan
				0.753081
				0.773841
				0.690444
				0.71088
				0.605782
				0.651661
				0.513998
				0.584623
				0.352576
				0.444575
				0.2253
				0.282121
				0.151409
				0.20342
				0.0746866
				0.150753
				0.0621663
				0.0652214
				0.135485
				0.139665
				0.108965
				0.154609
				0.0862934
				0.139497
				0.0181181
				0.0815451
				0.0642799
				0.0244601
				0.132164
				0.0861565
				0.139372
				0.135018
				0.0642702
				0.128021
				0.112591
				0.0607538
				0.323679
				0.181128
				0.406339
				0.347509
				0.411443
				0.401875
				0.376827
				0.396106
				0.346192
				0.387061
				0.236862
				0.312899
				0.336694
				0.207692
				0.566783
				0.46071
				0.569753
				0.614479
				0.483114
				0.564604
				0.361577
				0.441218
				0.326188
				0.302718
				0.463387
				0.409876
				0.471911
				0.52919
				0.396453
				0.462127
				0.317068
				0.348514
				0.282368
				0.266867
				0.282959
				0.254279
				0.267333
				0.270982
				0.247853
				0.259295
				0.225422
				0.221946
				0.18397
				0.16707
				0.144942
				0.105964
				0.122936
				0.121781
				0.126023
				0.0989774
				0.152242
				0.120724
				0.194318
				0.162017
				0.256445
				0.221016
				0.330638
				0.298009
				0.398851
				0.373649
				0.461108
				0.440899
				0.53345
				0.515342
				0.617886
				0.606029
				0.696033
				0.697455
				0.75376
				0.768631
				0.795368
				0.816563
				0.835517
				0.85588
				0.880997
				0.901298
				0.926241
				0.952648
				0.96986
				0.999732
				1.01635
				1.04072
				1.06773
				1.08515
				1.1163
				1.13622
				-nan
				1.19314
				-nan
				-nan
				-nan
				-nan
				0.747011
				0.757163
				0.696797
				0.731608
				0.615767
				0.66634
				0.547838
				0.605144
				0.423229
				0.480272
				0.33291
				0.342926
				0.275251
				0.281901
				0.203622
				0.223615
				0.145978
				0.132003
				0.144129
				0.132415
				0.143623
				0.146951
				0.0820239
				0.121427
				0.0636849
				0.0410169
				0.116823
				0.0752527
				0.188199
				0.159065
				0.173764
				0.178067
				0.0709968
				0.115016
				0.121593
				0.0707324
				0.36331
				0.281476
				0.452722
				0.449162
				0.443432
				0.474135
				0.405454
				0.449456
				0.339924
				0.426512
				0.20774
				0.271573
				0.282285
				0.1388
				0.535557
				0.424087
				0.536901
				0.556847
				0.479061
				0.530121
				0.398395
				0.479795
				0.303803
				0.338501
				0.342818
				0.248731
				0.406452
				0.36578
				0.372755
				0.3993
				0.346423
				0.36461
				0.338674
				0.357595
				0.316523
				0.351076
				0.281424
				0.317811
				0.259133
				0.265683
				0.250545
				0.227603
				0.229426
				0.234118
				0.185024
				0.221303
				0.144496
				0.183026
				0.135366