<VTKFile type="UnstructuredGrid" version="0.1" byte_order="LittleEndian">
<UnstructuredGrid>
	<Piece NumberOfPoints="1088" NumberOfCells="2048">
		<CellData Scalars="density" Vectors="velocity">
			<DataArray type="Float64" Name="density" Format="ascii">
				1.05924
				1.05693
				1.05761
				1.05643
				1.05211
				1.05376
				1.04144
				1.04687
				1.02543
				1.03494
				1.0046
				1.01817
				0.979785
				0.99724
				0.951855
				0.972955
				0.921688
				0.946137
				0.890199
				0.917613
				0.858373
				0.888277
				0.827328
				0.859125
				0.79844
				0.831335
				0.773365
				0.806378
				0.754337
				0.786069
				0.743805
				0.772671
				0.743818
				0.768276
				0.754324
				0.773775
				0.773506
				0.788069
				0.798791
				0.809025
				0.827974
				0.834409
				0.859273
				0.862433
				0.891284
				0.891664
				0.922886
				0.920967
				0.953124
				0.949415
				0.981211
				0.976221
				1.00646
				1.00072
				1.0283
				1.02236
				1.04626
				1.04064
				1.05995
				1.05519
				1.06904
				1.06569
				1.07302
				1.07203
				1.07302
				1.07398
				1.06903
				1.07203
				1.05994
				1.06568
				1.04625
				1.05518
				1.02829
				1.04063
				1.00644
				1.02234
				0.981185
				1.0007
				0.953093
				0.976195
				0.92285
				0.949384
				0.891243
				0.920931
				0.859224
				0.891622
				0.827917
				0.862385
				0.798725
				0.834353
				0.773429
				0.808959
				0.754237
				0.787994
				0.743725
				0.773692
				0.743715
				0.76819
				0.754257
				0.772591
				0.773297
				0.786
				0.798383
				0.80632
				0.827279
				0.831286
				0.858331
				0.859083
				0.890163
				0.888241
				0.921657
				0.917582
				0.951828
				0.94611
				0.979763
				0.972932
				1.00459
				0.997222
				1.02542
				1.01815
				1.04144
				1.03493
				1.0521
				1.04686
				1.05761
				1.05376
				1.05924
				1.05643
				1.05496
				1.0594
				1.0533
				1.05877
				1.04954
				1.05565
				1.04206
				1.04892
				1.03089
				1.03847
				1.0164
				1.02442
				0.999073
				1.0071
				0.979426
				0.986979
				0.958009
				0.964618
				0.935443
				0.940635
				0.912458
				0.91574
				0.889939
				0.890768
				0.868982
				0.866742
				0.850956
				0.844944
				0.837504
				0.82699
				0.830315
				0.814811
				0.830542
				0.810228
				0.838134
				0.814048
				0.851875
				0.825516
				0.870068
				0.84288
				0.891105
				0.864246
				0.913662
				0.888004
				0.93669
				0.912866
				0.959352
				0.937817
				0.980975
				0.962037
				1.001
				0.984852
				1.01898
				1.0057
				1.03453
				1.02412
				1.04734
				1.0397
				1.05717
				1.05214
				1.06385
				1.06116
				1.06722
				1.06654
				1.06722
				1.06826
				1.06385
				1.06654
				1.05717
				1.06116
				1.04733
				1.05213
				1.03452
				1.03969
				1.01897
				1.0241
				1.00099
				1.00568
				0.980952
				0.98483
				0.959325
				0.96201
				0.936658
				0.937785
				0.913625
				0.912829
				0.891062
				0.88796
				0.870017
				0.864196
				0.851817
				0.842821
				0.838069
				0.825449
				0.830474
				0.813975
				0.830248
				0.810153
				0.837443
				0.814742
				0.850904
				0.82693
				0.868937
				0.844893
				0.889901
				0.866699
				0.912427
				0.890732
				0.935416
				0.915709
				0.957986
				0.940609
				0.979407
				0.964596
				0.999057
				0.98696
				1.01638
				1.00708
				1.03088
				1.02441
				1.04206
				1.03846
				1.04954
				1.04891
				1.05329
				1.05565
				1.05496
				1.05877
				1.05361
				1.05018
				1.05268
				1.04884
				1.04818
				1.04677
				1.04108
				1.04188
				1.03147
				1.0343
				1.01945
				1.02438
				1.00524
				1.01237
				0.989117
				0.998524
				0.971473
				0.983154
				0.952807
				0.966655
				0.933729
				0.949538
				0.914995
				0.932439
				0.897541
				0.916149
				0.882508
				0.901633
				0.871224
				0.890012
				0.865001
				0.882451
				0.86472
				0.879894
				0.870411
				0.882712
				0.88125
				0.890513
				0.895961
				0.90234
				0.913232
				0.917024
				0.931919
				0.933458
				0.951084
				0.950702
				0.96998
				0.967995
				0.988005
				0.98473
				1.00468
				1.00042
				1.01961
				1.01469
				1.03249
				1.02723
				1.04307
				1.03779
				1.05116
				1.0462
				1.05661
				1.05231
				1.05937
				1.05601
				1.05937
				1.05724
				1.0566
				1.05601
				1.05115
				1.05231
				1.04306
				1.04619
				1.03248
				1.03778
				1.0196
				1.02721
				1.00466
				1.01468
				0.987985
				1.00041
				0.969956
				0.98471
				0.951056
				0.967971
				0.931886
				0.950674
				0.913194
				0.933425
				0.895917
				0.916986
				0.8812
				0.902297
				0.870356
				0.890465
				0.864662
				0.88266
				0.864945
				0.879843
				0.871173
				0.882402
				0.882463
				0.889968
				0.897503
				0.901595
				0.914963
				0.916116
				0.933702
				0.932411
				0.952783
				0.949514
				0.971454
				0.966635
				0.989101
				0.983137
				1.00523
				0.99851
				1.01944
				1.01236
				1.03146
				1.02437
				1.04108
				1.03429
				1.04818
				1.04187
				1.05268
				1.04677
				1.0536
				1.04884
				1.04075
				1.04419
				1.03978
				1.04468
				1.03707
				1.04285
				1.03212
				1.03823
				1.02552
				1.03178
				1.01748
				1.02364
				1.00813
				1.01394
				0.99762
				1.00281
				0.986178
				0.990471
				0.974122
				0.97723
				0.961871
				0.963482
				0.949958
				0.949742
				0.939029
				0.936654
				0.929829
				0.924997
				0.923133
				0.915657
				0.919619
				0.909521
				0.919696
				0.907284
				0.923364
				0.909222
				0.930217
				0.915094
				0.939578
				0.924238
				0.950672
				0.935789
				0.962763
				0.948873
				0.975211
				0.962709
				0.987491
				0.976646
				0.999185
				0.99016
				1.00997
				1.00283
				1.01958
				1.01434
				1.02784
				1.02444
				1.0346
				1.03293
				1.03975
				1.03966
				1.04323
				1.04454
				1.04498
				1.04745
				1.04498
				1.04843
				1.04322
				1.04745
				1.03975
				1.04453
				1.03459
				1.03966
				1.02783
				1.03292
				1.01957
				1.02443
				1.00995
				1.01433
				0.99917
				1.00282
				0.987473
				0.990142
				0.97519
				0.976626
				0.962739
				0.962685
				0.950644
				0.948845
				0.939546
				0.935757
				0.930183
				0.924202
				0.923327
				0.915054
				0.919658
				0.90918
				0.919582
				0.907242
				0.923098
				0.909481
				0.929798
				0.91562
				0.939002
				0.924964
				0.949934
				0.936626
				0.961851
				0.949719
				0.974105
				0.963462
				0.986164
				0.977213
				0.997608
				0.990457
				1.00812
				1.00279
				1.01747
				1.01393
				1.02551
				1.02364
				1.03212
				1.03177
				1.03707
				1.03822
				1.03977
				1.04285
				1.04075
				1.04468
				1.03383
				1.03083
				1.03438
				1.03034
				1.03174
				1.02954
				1.0277
				1.02667
				1.02246
				1.02254
				1.01612
				1.01741
				1.00876
				1.01136
				1.0005
				1.00447
				0.99153
				0.99687
				0.982087
				0.988749
				0.972505
				0.980372
				0.963204
				0.972078
				0.954692
				0.964284
				0.947541
				0.957464
				0.942331
				0.952121
				0.939552
				0.948712
				0.939492
				0.947571
				0.942167
				0.94882
				0.947299
				0.95234
				0.954414
				0.957805
				0.962943
				0.964754
				0.972318
				0.972689
				0.982026
				0.981132
				0.991637
				0.989667
				1.0008
				0.997952
				1.00926
				1.00571
				1.01679
				1.01275
				1.02325
				1.01889
				1.02852
				1.02404
				1.03253
				1.02811
				1.03522
				1.03105
				1.03656
				1.03283
				1.03656
				1.03343
				1.03521
				1.03283
				1.03253
				1.03105
				1.02852
				1.02811
				1.02324
				1.02403
				1.01678
				1.01888
				1.00925
				1.01274
				1.00079
				1.0057
				0.991622
				0.997939
				0.982008
				0.989652
				0.972297
				0.981115
				0.96292
				0.972669
				0.954388
				0.964732
				0.94727
				0.95778
				0.942137
				0.952314
				0.939462
				0.948793
				0.939521
				0.947543
				0.942302
				0.948685
				0.947515
				0.952096
				0.954669
				0.957442
				0.963184
				0.964264
				0.972488
				0.972061
				0.982073
				0.980357
				0.991518
				0.988736
				1.00049
				0.996859
				1.00875
				1.00446
				1.01611
				1.01136
				1.02246
				1.01741
				1.0277
				1.02253
				1.03174
				1.02667
				1.03437
				1.02954
				1.03383
				1.03034
				1.02125
				1.02332
				1.02134
				1.02468
				1.02009
				1.02403
				1.01771
				1.02165
				1.01464
				1.01851
				1.01093
				1.0146
				1.00661
				1.00996
				1.00176
				1.00468
				0.996516
				0.998854
				0.991022
				0.992639
				0.985492
				0.986241
				0.980182
				0.979922
				0.975386
				0.974001
				0.971419
				0.968835
				0.968583
				0.964796
				0.967118
				0.962213
				0.967161
				0.96132
				0.968711
				0.962204
				0.971633
				0.964786
				0.975691
				0.968838
				0.980581
				0.974034
				0.985987
				0.980009
				0.991612
				0.986401
				0.997195
				0.992889
				1.00252
				0.999201
				1.00743
				1.00512
				1.0118
				1.01048
				1.01554
				1.01517
				1.01858
				1.01909
				1.02089
				1.02218
				1.02244
				1.02441
				1.02322
				1.02575
				1.02322
				1.0262
				1.02244
				1.02575
				1.02089
				1.02441
				1.01858
				1.02218
				1.01553
				1.01908
				1.01179
				1.01516
				1.00743
				1.01048
				1.00251
				1.00511
				0.997184
				0.99919
				0.991599
				0.992876
				0.985973
				0.986386
				0.980565
				0.979992
				0.975673
				0.974016
				0.971614
				0.968818
				0.968691
				0.964764
				0.967141
				0.962182
				0.967099
				0.961298
				0.968564
				0.962191
				0.971402
				0.964776
				0.97537
				0.968817
				0.980168
				0.973984
				0.98548
				0.979908
				0.991012
				0.986228
				0.996507
				0.992629
				1.00176
				0.998845
				1.0066
				1.00467
				1.01092
				1.00996
				1.01464
				1.01459
				1.0177
				1.0185
				1.02008
				1.02165
				1.02134
				1.02402
				1.02125
				1.02468
				1.01578
				1.01391
				1.01684
				1.01402
				1.01553
				1.01396
				1.01379
				1.01273
				1.01153
				1.01102
				1.00876
				1.00886
				1.00553
				1.00628
				1.0019
				1.00332
				0.997977
				1.00007
				0.993875
				0.996609
				0.989754
				0.993066
				0.985806
				0.989594
				0.982251
				0.98637
				0.979319
				0.983588
				0.977225
				0.981438
				0.97614
				0.980086
				0.976156
				0.979643
				0.977277
				0.98015
				0.979407
				0.981567
				0.982379
				0.98378
				0.985978
				0.986625
				0.989972
				0.989908
				0.994141
				0.993436
				0.998288
				0.997026
				1.00225
				1.00053
				1.00591
				1.00381
				1.00916
				1.00678
				1.01194
				1.00937
				1.0142
				1.01154
				1.01591
				1.01325
				1.01706
				1.01448
				1.01763
				1.01522
				1.01763
				1.01547
				1.01706
				1.01522
				1.01591
				1.01447
				1.01419
				1.01324
				1.01193
				1.01154
				1.00915
				1.00937
				1.0059
				1.00678
				1.00225
				1.0038
				0.998279
				1.00052
				0.99413
				0.997017
				0.98996
				0.993425
				0.985964
				0.989897
				0.982365
				0.986612
				0.979392
				0.983766
				0.977261
				0.981552
				0.97614
				0.980135
				0.976124
				0.979628
				0.97721
				0.980071
				0.979305
				0.981424
				0.982238
				0.983575
				0.985794
				0.986358
				0.989743
				0.989584
				0.993866
				0.993057
				0.997969
				0.996601
				1.00189
				1.00006
				1.00552
				1.00332
				1.00875
				1.00627
				1.01152
				1.00886
				1.01379
				1.01101
				1.01553
				1.01273
				1.01684
				1.01396
				1.01578
				1.01402
				1.00858
				1.0093
				1.00897
				1.01068
				1.00854
				1.01046
				1.00765
				1.00952
				1.00647
				1.00829
				1.00499
				1.00671
				1.00327
				1.00483
				1.00133
				1.00267
				0.999229
				1.00029
				0.997044
				0.997757
				0.994859
				0.995171
				0.992777
				0.99264
				0.990916
				0.990295
				0.989392
				0.988276
				0.988315
				0.98672
				0.987765
				0.985742
				0.987789
				0.985422
				0.988386
				0.985786
				0.989509
				0.986806
				0.991076
				0.988402
				0.992977
				0.990459
				0.995093
				0.992839
				0.997307
				0.995401
				0.999514
				0.998013
				1.00163
				1.00056
				1.00357
				1.00296
				1.0053
				1.00512
				1.00678
				1.00701
				1.00798
				1.00859
				1.00889
				1.00983
				1.0095
				1.01073
				1.00981
				1.01126
				1.00981
				1.01144
				1.0095
				1.01126
				1.00889
				1.01072
				1.00798
				1.00983
				1.00678
				1.00859
				1.0053
				1.00701
				1.00357
				1.00512
				1.00162
				1.00295
				0.999507
				1.00056
				0.9973
				0.998006
				0.995085
				0.995392
				0.992968
				0.99283
				0.991066
				0.990449
				0.989499
				0.988391
				0.988375
				0.986794
				0.987778
				0.985774
				0.987754
				0.98541
				0.988304
				0.985731
				0.989383
				0.986709
				0.990907
				0.988266
				0.992769
				0.990285
				0.994851
				0.992631
				0.997037
				0.995163
				0.999223
				0.99775
				1.00132
				1.00028
				1.00326
				1.00266
				1.00499
				1.00482
				1.00646
				1.00671
				1.00765
				1.00828
				1.00854
				1.00951
				1.00897
				1.01046
				1.00858
				1.01068
				1.00585
				1.00501
				1.00672
				1.00526
				1.0062
				1.00543
				1.00558
				1.00502
				1.00473
				1.0044
				1.00367
				1.00359
				1.00243
				1.00262
				1.00103
				1.0015
				0.99953
				1.00027
				0.997963
				0.998972
				0.996397
				0.997644
				0.994908
				0.996348
				0.993579
				0.995153
				0.992494
				0.994129
				0.991727
				0.993343
				0.991339
				0.992853
				0.991358
				0.992697
				0.991785
				0.992888
				0.992587
				0.99341
				0.993705
				0.994227
				0.995063
				0.99528
				0.996576
				0.9965
				0.99816
				0.997815
				0.999741
				0.999158
				1.00125
				1.00047
				1.00265
				1.0017
				1.00389
				1.00282
				1.00495
				1.00379
				1.00581
				1.0046
				1.00646
				1.00524
				1.00689
				1.0057
				1.00711
				1.00598
				1.00711
				1.00607
				1.00689
				1.00598
				1.00646
				1.0057
				1.00581
				1.00524
				1.00494
				1.0046
				1.00389
				1.00379
				1.00264
				1.00282
				1.00125
				1.0017
				0.999735
				1.00047
				0.998154
				0.999153
				0.996569
				0.997809
				0.995055
				0.996493
				0.993697
				0.995272
				0.992578
				0.994219
				0.991776
				0.993402
				0.991349
				0.99288
				0.99133
				0.992689
				0.991719
				0.992846
				0.992485
				0.993336
				0.993572
				0.994122
				0.994902
				0.995147
				0.996391
				0.996342
				0.997957
				0.997638
				0.999525
				0.998967
				1.00103
				1.00027
				1.00242
				1.0015
				1.00367
				1.00261
				1.00473
				1.00359
				1.00558
				1.0044
				1.00619
				1.00502
				1.00672
				1.00543
				1.00585
				1.00526
				1.00283
				1.00291
				1.00322
				1.00389
				1.00314
				1.00389
				1.00284
				1.00357
				1.00241
				1.00313
				1.00188
				1.00255
				1.00126
				1.00187
				1.00056
				1.00108
				0.99981
				1.00021
				0.999028
				0.999293
				0.998248
				0.998356
				0.997508
				0.997443
				0.996849
				0.996601
				0.996312
				0.995881
				0.995935
				0.995331
				0.995745
				0.994989
				0.995758
				0.994882
				0.995972
				0.99502
				0.996373
				0.995391
				0.996931
				0.995968
				0.997609
				0.996712
				0.998366
				0.997575
				0.999159
				0.998504
				0.999951
				0.999454
				1.00071
				1.00038
				1.00141
				1.00125
				1.00203
				1.00204
				1.00256
				1.00273
				1.00299
				1.0033
				1.00332
				1.00376
				1.00354
				1.00408
				1.00365
				1.00427
				1.00365
				1.00434
				1.00354
				1.00427
				1.00332
				1.00408
				1.00299
				1.00375
				1.00256
				1.0033
				1.00203
				1.00273
				1.00141
				1.00204
				1.00071
				1.00125
				0.999947
				1.00038
				0.999154
				0.99945
				0.998361
				0.998499
				0.997604
				0.997569
				0.996925
				0.996706
				0.996367
				0.995962
				0.995966
				0.995384
				0.995752
				0.995013
				0.995739
				0.994876
				0.995929
				0.994982
				0.996307
				0.995324
				0.996844
				0.995876
				0.997503
				0.996596
				0.998244
				0.997438
				0.999024
				0.998351
				0.999807
				0.999289
				1.00056
				1.00021
				1.00126
				1.00108
				1.00188
				1.00186
				1.00241
				1.00255
				1.00284
				1.00313
				1.00314
				1.00357
				1.00322
				1.00389
				1.00283
				1.00389
				1.00174
				1.00144
				1.00238
				1.00169
				1.0022
				1.0019
				1.00199
				1.00176
				1.00169
				1.00154
				1.00131
				1.00126
				1.00088
				1.00093
				1.00039
				1.00054
				0.99987
				1.00012
				0.999324
				0.999672
				0.99878
				0.999215
				0.998264
				0.998771
				0.997806
				0.998362
				0.997433
				0.998012
				0.997173
				0.997746
				0.997043
				0.997581
				0.997055
				0.997531
				0.997207
				0.997599
				0.997489
				0.997782
				0.997881
				0.998065
				0.998357
				0.998429
				0.998887
				0.998852
				0.999442
				0.999308
				0.999997
				0.999774
				1.00053
				1.00023
				1.00102
				1.00066
				1.00145
				1.00105
				1.00182
				1.00138
				1.00213
				1.00166
				1.00235
				1.00189
				1.00251
				1.00205
				1.00258
				1.00214
				1.00258
				1.00217
				1.00251
				1.00214
				1.00235
				1.00205
				1.00212
				1.00189
				1.00182
				1.00166
				1.00145
				1.00138
				1.00101
				1.00104
				1.00052
				1.00066
				0.999993
				1.00023
				0.999439
				0.999771
				0.998883
				0.999304
				0.998352
				0.998848
				0.997877
				0.998425
				0.997484
				0.998061
				0.997202
				0.997777
				0.99705
				0.997595
				0.997038
				0.997526
				0.997168
				0.997577
				0.997429
				0.997741
				0.997801
				0.998008
				0.99826
				0.998358
				0.998776
				0.998767
				0.999321
				0.999212
				0.999867
				0.999669
				1.00039
				1.00012
				1.00088
				1.00054
				1.00131
				1.00093
				1.00168
				1.00126
				1.00199
				1.00154
				1.0022
				1.00176
				1.00238
				1.0019
				1.00174
				1.00169
				1.00074
				1.0006
				1.00106
				1.00126
				1.00106
				1.00134
				1.00095
				1.00121
				1.0008
				1.00106
				1.00063
				1.00086
				1.00042
				1.00063
				1.00019
				1.00036
				0.999936
				1.00007
				0.999675
				0.999763
				0.999416
				0.999448
				0.999171
				0.999142
				0.998953
				0.998861
				0.998776
				0.998622
				0.998653
				0.99844
				0.998593
				0.998328
				0.9986
				0.998296
				0.998676
				0.998346
				0.998813
				0.998476
				0.999004
				0.998674
				0.999234
				0.998929
				0.999491
				0.999225
				0.999761
				0.999543
				1.00003
				0.999867
				1.00029
				1.00018
				1.00052
				1.00048
				1.00073
				1.00075
				1.00091
				1.00099
				1.00106
				1.00118
				1.00117
				1.00134
				1.00124
				1.00145
				1.00128
				1.00151
				1.00128
				1.00154
				1.00124
				1.00151
				1.00117
				1.00145
				1.00106
				1.00134
				1.00091
				1.00118
				1.00073
				1.00099
				1.00052
				1.00075
				1.00028
				1.00048
				1.00003
				1.00018
				0.999758
				0.999865
				0.999489
				0.99954
				0.999231
				0.999221
				0.999
				0.998926
				0.99881
				0.998671
				0.998672
				0.998472
				0.998597
				0.998343
				0.998589
				0.998292
				0.99865
				0.998325
				0.998773
				0.998436
				0.99895
				0.998618
				0.999168
				0.998858
				0.999414
				0.999139
				0.999673
				0.999446
				0.999934
				0.99976
				1.00018
				1.00007
				1.00042
				1.00036
				1.00062
				1.00063
				1.0008
				1.00086
				1.00095
				1.00106
				1.00106
				1.00121
				1.00106
				1.00134
				1.00074
				1.00126
				1.00034
				1.00027
				1.00081
				1.00046
				1.00072
				1.00062
				1.00065
				1.00057
				1.00055
				1.0005
				1.00043
				1.0004
				1.00029
				1.0003
				1.00013
				1.00017
				0.999954
				1.00004
				0.999775
				0.999889
				0.999597
				0.999741
				0.999428
				0.999597
				0.999279
				0.999465
				0.999159
				0.999353
				0.999076
				0.999268
				0.999037
				0.999217
				0.999044
				0.999204
				0.999098
				0.99923
				0.999194
				0.999292
				0.999327
				0.999388
				0.999487
				0.999511
				0.999666
				0.999652
				0.999852
				0.999805
				1.00004
				0.999961
				1.00022
				1.00011
				1.00038
				1.00026
				1.00053
				1.00039
				1.00065
				1.0005
				1.00075
				1.00059
				1.00083
				1.00067
				1.00088
				1.00072
				1.00091
				1.00075
				1.00091
				1.00076
				1.00088
				1.00075
				1.00083
				1.00072
				1.00075
				1.00067
				1.00065
				1.00059
				1.00053
				1.0005
				1.00038
				1.00038
				1.00022
				1.00025
				1.00004
				1.00011
				0.99985
				0.999959
				0.999663
				0.999803
				0.999485
				0.99965
				0.999325
				0.999508
				0.999192
				0.999386
				0.999095
				0.99929
				0.999041
				0.999227
				0.999034
				0.999201
				0.999073
				0.999215
				0.999156
				0.999266
				0.999277
				0.999351
				0.999426
				0.999463
				0.999595
				0.999595
				0.999773
				0.999739
				0.999953
				0.999888
				1.00013
				1.00003
				1.00028
				1.00017
				1.00043
				1.0003
				1.00055
				1.0004
				1.00064
				1.00049
				1.00072
				1.00057
				1.00081
				1.00062
				1.00034
				1.00046
				1.0001
				0.999934
				1.00032
				1.0004
				1.00033
				1.00043
				1.00029
				1.00038
				1.00024
				1.00032
				1.00018
				1.00026
				1.00012
				1.00018
				1.00004
				1.0001
				0.999962
				1
				0.999879
				0.999906
				0.999796
				0.999806
				0.999719
				0.999708
				0.99965
				0.99962
				0.999595
				0.999545
				0.999558
				0.999488
				0.999542
				0.999456
				0.999549
				0.999449
				0.999579
				0.999469
				0.999629
				0.999516
				0.999697
				0.999586
				0.999779
				0.999675
				0.999868
				0.999777
				0.999961
				0.999886
				1.00005
				0.999997
				1.00014
				1.00011
				1.00022
				1.00021
				1.00029
				1.0003
				1.00035
				1.00038
				1.0004
				1.00044
				1.00044
				1.00049
				1.00047
				1.00053
				1.00048
				1.00055
				1.00048
				1.00056
				1.00047
				1.00055
				1.00044
				1.00053
				1.0004
				1.00049
				1.00035
				1.00044
				1.00029
				1.00038
				1.00022
				1.0003
				1.00014
				1.00021
				1.00005
				1.0001
				0.99996
				0.999996
				0.999867
				0.999885
				0.999777
				0.999775
				0.999695
				0.999673
				0.999627
				0.999584
				0.999577
				0.999514
				0.999547
				0.999467
				0.99954
				0.999447
				0.999557
				0.999453
				0.999594
				0.999486
				0.999648
				0.999543
				0.999717
				0.999618
				0.999795
				0.999707
				0.999878
				0.999804
				0.999961
				0.999904
				1.00004
				1
				1.00012
				1.0001
				1.00018
				1.00018
				1.00024
				1.00026
				1.00029
				1.00032
				1.00033
				1.00038
				1.00032
				1.00043
				1.0001
				1.0004
				0.999946
				0.999951
				1.00025
				1.00008
				1.0002
				1.00018
				1.00019
				1.00016
				1.00016
				1.00014
				1.00013
				1.00011
				1.00008
				1.00008
				1.00003
				1.00004
				0.999977
				1
				0.999921
				0.999958
				0.999865
				0.999914
				0.999813
				0.999871
				0.999768
				0.999832
				0.999733
				0.9998
				0.99971
				0.999777
				0.999701
				0.999764
				0.999708
				0.999762
				0.999729
				0.999773
				0.999763
				0.999794
				0.999808
				0.999826
				0.999861
				0.999866
				0.999921
				0.999912
				0.999983
				0.999963
				1.00004
				1.00001
				1.0001
				1.00007
				1.00016
				1.00011
				1.00021
				1.00016
				1.00025
				1.0002
				1.00029
				1.00023
				1.00031
				1.00026
				1.00033
				1.00027
				1.00034
				1.00029
				1.00034
				1.00029
				1.00033
				1.00029
				1.00031
				1.00027
				1.00029
				1.00025
				1.00025
				1.00023
				1.00021
				1.0002
				1.00016
				1.00016
				1.0001
				1.00011
				1.00004
				1.00006
				0.999981
				1.00001
				0.999919
				0.999962
				0.99986
				0.999911
				0.999806
				0.999865
				0.999761
				0.999824
				0.999727
				0.999793
				0.999707
				0.999771
				0.9997
				0.999761
				0.999708
				0.999763
				0.999731
				0.999775
				0.999767
				0.999799
				0.999812
				0.999831
				0.999864
				0.99987
				0.99992
				0.999913
				0.999976
				0.999957
				1.00003
				1
				1.00008
				1.00004
				1.00012
				1.00008
				1.00016
				1.00011
				1.00019
				1.00014
				1.0002
				1.00016
				1.00025
				1.00018
				0.999946
				1.00008
				0.999864
				0.999864
				1.0001
				1.00013
				1.0001
				1.00011
				1.00009
				1.0001
				1.00007
				1.00008
				1.00005
				1.00006
				1.00002
				1.00003
				0.999985
				1
				0.99995
				0.99997
				0.999914
				0.999934
				0.99988
				0.999899
				0.999848
				0.999864
				0.999822
				0.999833
				0.999803
				0.999808
				0.999793
				0.99979
				0.999793
				0.999781
				0.999803
				0.999782
				0.999827
				0.999795
				0.999861
				0.999822
				0.999903
				0.99986
				0.99995
				0.999905
				0.999999
				0.999956
				1.00005
				1.00001
				1.00009
				1.00006
				1.00014
				1.00011
				1.00017
				1.00015
				1.00021
				1.00019
				1.00023
				1.00023
				1.00025
				1.00025
				1.00027
				1.00027
				1.00028
				1.00029
				1.00028
				1.0003
				1.00028
				1.0003
				1.00028
				1.0003
				1.00027
				1.00029
				1.00025
				1.00027
				1.00023
				1.00025
				1.00021
				1.00023
				1.00017
				1.00019
				1.00014
				1.00015
				1.00009
				1.00011
				1.00005
				1.00006
				0.999998
				1.00001
				0.999949
				0.999954
				0.999902
				0.999904
				0.99986
				0.999858
				0.999825
				0.999821
				0.999802
				0.999794
				0.999791
				0.999781
				0.999792
				0.99978
				0.999802
				0.999788
				0.999821
				0.999806
				0.999847
				0.999832
				0.999878
				0.999863
				0.999913
				0.999897
				0.999949
				0.999933
				0.999984
				0.999969
				1.00002
				1
				1.00005
				1.00003
				1.00007
				1.00006
				1.00009
				1.00008
				1.0001
				1.0001
				1.0001
				1.00011
				0.999864
				1.00013
			</DataArray>
			<DataArray type="Float64" Name="mach-number" Format="ascii">
				0.0208166
				0.01602
				0.0670188
				0.0526102
				0.127707
				0.105453
				0.195518
				0.167565
				0.265849
				0.23361
				0.3364
				0.30072
				0.406121
				0.367442
				0.474519
				0.433044
				0.541281
				0.497082
				0.606017
				0.55917
				0.668103
				0.618754
				0.726555
				0.675034
				0.779774
				0.726801
				0.825449
				0.77222
				0.860039
				0.808751
				0.879375
				0.832907
				0.879926
				0.841365
				0.861857
				0.832654
				0.82845
				0.80857
				0.784088
				0.772518
				0.732263
				0.727962
				0.675477
				0.677453
				0.615421
				0.62284
				0.553204
				0.565378
				0.489596
				0.505933
				0.425092
				0.445141
				0.360047
				0.383443
				0.294718
				0.321213
				0.229308
				0.2588
				0.164042
				0.196664
				0.0995395
				0.135784
				0.0394007
				0.0795058
				0.0394382
				0.0449912
				0.0995852
				0.079541
				0.164089
				0.135826
				0.229357
				0.19671
				0.294769
				0.258848
				0.3601
				0.321263
				0.425149
				0.383496
				0.489657
				0.445197
				0.553271
				0.505993
				0.615494
				0.565443
				0.675558
				0.622911
				0.732355
				0.677534
				0.784194
				0.728053
				0.828572
				0.772622
				0.861995
				0.808689
				0.880076
				0.832785
				0.879522
				0.8415
				0.86017
				0.833033
				0.82556
				0.808862
				0.779869
				0.772315
				0.726638
				0.726884
				0.668177
				0.675107
				0.606084
				0.618821
				0.541343
				0.559231
				0.474577
				0.497139
				0.406176
				0.433098
				0.336452
				0.367493
				0.265898
				0.300769
				0.195564
				0.233656
				0.127747
				0.167607
				0.0670502
				0.105489
				0.020832
				0.0526362
				0.0854277
				0.0494546
				0.133259
				0.0905509
				0.180771
				0.140139
				0.228792
				0.192528
				0.277893
				0.246378
				0.328078
				0.301262
				0.378953
				0.356612
				0.429987
				0.411895
				0.480579
				0.46662
				0.530052
				0.520271
				0.577583
				0.572211
				0.622103
				0.621598
				0.662169
				0.667247
				0.695841
				0.707475
				0.720642
				0.739954
				0.733911
				0.761703
				0.733774
				0.769811
				0.720297
				0.762964
				0.695425
				0.742392
				0.661839
				0.710912
				0.621976
				0.67147
				0.577724
				0.626425
				0.530465
				0.577502
				0.481207
				0.525927
				0.430715
				0.47258
				0.379611
				0.418125
				0.328486
				0.3631
				0.278028
				0.308029
				0.229252
				0.253555
				0.183969
				0.200741
				0.145797
				0.15185
				0.121237
				0.112471
				0.121246
				0.0908722
				0.14582
				0.112491
				0.184
				0.151883
				0.229287
				0.200779
				0.278068
				0.253597
				0.328528
				0.308074
				0.379656
				0.363147
				0.430764
				0.418175
				0.48126
				0.472635
				0.530523
				0.525986
				0.577789
				0.577567
				0.622049
				0.626498
				0.661923
				0.671553
				0.695519
				0.711007
				0.720402
				0.742499
				0.733884
				0.763081
				0.734019
				0.769931
				0.720741
				0.761815
				0.695928
				0.740053
				0.662245
				0.707561
				0.62217
				0.667321
				0.577642
				0.621664
				0.530106
				0.572271
				0.480628
				0.520325
				0.430032
				0.46667
				0.378996
				0.411942
				0.328117
				0.356656
				0.27793
				0.301304
				0.228827
				0.246417
				0.180804
				0.192564
				0.133291
				0.140174
				0.085459
				0.0905836
				0.125271
				0.135613
				0.170623
				0.170309
				0.208943
				0.206208
				0.245874
				0.238603
				0.284046
				0.271361
				0.324171
				0.30622
				0.365999
				0.343317
				0.408876
				0.382089
				0.452011
				0.421736
				0.494563
				0.46139
				0.53561
				0.500141
				0.574071
				0.536973
				0.608604
				0.570691
				0.637522
				0.599842
				0.658794
				0.62271
				0.67036
				0.637456
				0.670807
				0.642566
				0.660082
				0.637434
				0.639497
				0.622684
				0.611064
				0.599837
				0.576798
				0.570721
				0.538391
				0.537024
				0.497164
				0.500143
				0.454147
				0.461194
				0.410169
				0.421083
				0.365964
				0.3806
				0.322282
				0.340511
				0.280019
				0.301669
				0.240435
				0.265158
				0.20545
				0.232477
				0.177972
				0.205727
				0.16244
				0.187714
				0.162445
				0.181147
				0.177988
				0.187723
				0.205473
				0.205744
				0.240463
				0.2325
				0.280052
				0.265185
				0.322318