<VTKFile type="UnstructuredGrid" version="0.1" byte_order="LittleEndian">
<UnstructuredGrid>
	<Piece NumberOfPoints="288" NumberOfCells="512">
		<CellData Scalars="density" Vectors="velocity">
			<DataArray type="Float64" Name="density" Format="ascii">
				1.00606
				1.00648
				1.00946
				1.00023
				0.990305
				1.0006
				0.956817
				0.984084
				0.910557
				0.953217
				0.859009
				0.911992
				0.813565
				0.86838
				0.788883
				0.836531
				0.792581
				0.837157
				0.829198
				0.852562
				0.884721
				0.88867
				0.939379
				0.9312
				0.987881
				0.975644
				1.02844
				1.01645
				1.05476
				1.04446
				1.06294
				1.0598
				1.06293
				1.06616
				1.05472
				1.05978
				1.02836
				1.04441
				0.987767
				1.01637
				0.939228
				0.975531
				0.884511
				0.931057
				0.828938
				0.888491
				0.792285
				0.852333
				0.788565
				0.836896
				0.813264
				0.836272
				0.858754
				0.868138
				0.91034
				0.911783
				0.956645
				0.953049
				0.990193
				0.983968
				1.00939
				1.00054
				1.00607
				1.00045
				1.00489
				1.00778
				1.00998
				1.01781
				1.00397
				1.01088
				0.992114
				0.997737
				0.974463
				0.976778
				0.952537
				0.951002
				0.92986
				0.925665
				0.918653
				0.903862
				0.922777
				0.895663
				0.936878
				0.904908
				0.955899
				0.929953
				0.981318
				0.959921
				1.00627
				0.988683
				1.02587
				1.01412
				1.03792
				1.03414
				1.04243
				1.04672
				1.04242
				1.05003
				1.0379
				1.0467
				1.02583
				1.0341
				1.0062
				1.01405
				0.981231
				0.988598
				0.955795
				0.959808
				0.936748
				0.92981
				0.922626
				0.904731
				0.918491
				0.895468
				0.929708
				0.903674
				0.952411
				0.925504
				0.974369
				0.950873
				0.992043
				0.976678
				1.00392
				0.997667
				1.00996
				1.01085
				1.00496
				1.01786
				1.00518
				1.00237
				1.01228
				1.00249
				1.00545
				1.00654
				0.996384
				1.00167
				0.984549
				0.993996
				0.97209
				0.984367
				0.961217
				0.974103
				0.95504
				0.967077
				0.955768
				0.965667
				0.964037
				0.969818
				0.977135
				0.977975
				0.992272
				0.988799
				1.00608
				1.00103
				1.01771
				1.01177
				1.02608
				1.01955
				1.02985
				1.02398
				1.02985
				1.02595
				1.02606
				1.02397
				1.01768
				1.01953
				1.00604
				1.01174
				0.992215
				1.00099
				0.977062
				0.988742
				0.963947
				0.977906
				0.955667
				0.969741
				0.954938
				0.965583
				0.961123
				0.966994
				0.972008
				0.974028
				0.984481
				0.984304
				0.99633
				0.993946
				1.00542
				1.00163
				1.01223
				1.00652
				1.00526
				1.00248
				0.996426
				0.992719
				1.00214
				1.00244
				1.00244
				1.00481
				0.999391
				1.00098
				0.995609
				0.996395
				0.991513
				0.991105
				0.988083
				0.986066
				0.986554
				0.982589
				0.987323
				0.981715
				0.990125
				0.983909
				0.994504
				0.988805
				0.999416
				0.995002
				1.00419
				1.00141
				1.00802
				1.00708
				1.01059
				1.01156
				1.01192
				1.01411
				1.01192
				1.01506
				1.01058
				1.0141
				1.00801
				1.01154
				1.00417
				1.00706
				0.999384
				1.00138
				0.994465
				0.994964
				0.990081
				0.988757
				0.987276
				0.983854
				0.986505
				0.981657
				0.988035
				0.982533
				0.991471
				0.986017
				0.995578
				0.991063
				0.999371
				0.996362
				1.00242
				1.00096
				1.00211
				1.0048
				0.996434
				1.00244
				0.99522
				0.996739
				1.00309
				0.99908
				1.00123
				1.00144
				0.999551
				1.0004
				0.997505
				0.998873
				0.995434
				0.997146
				0.993725
				0.995808
				0.992911
				0.99519
				0.993304
				0.995212
				0.994873
				0.995839
				0.997185
				0.997225
				0.999779
				0.999216
				1.00224
				1.0012
				1.00427
				1.00284
				1.00567
				1.00396
				1.00644
				1.00459
				1.00644
				1.0049
				1.00567
				1.00459
				1.00425
				1.00395
				1.00222
				1.00283
				0.999759
				1.00118
				0.99716
				0.999197
				0.994844
				0.997204
				0.993273
				0.995818
				0.992879
				0.995188
				0.993693
				0.995166
				0.995401
				0.995785
				0.99747
				0.997123
				0.999515
				0.998847
				1.00118
				1.00036
				1.00303
				1.00141
				0.995228
				0.999109
				0.993407
				0.990761
				0.999529
				0.998725
				0.999905
				1.00036
				0.999648
				0.999875
				0.999174
				0.999207
				0.998654
				0.998409
				0.998246
				0.997683
				0.99812
				0.997242
				0.998405
				0.997266
				0.999029
				0.997801
				0.999843
				0.998744
				1.00068
				0.999901
				1.00145
				1.00105
				1.00208
				1.00202
				1.0025
				1.00274
				1.00269
				1.00318
				1.00269
				1.00341
				1.0025
				1.00318
				1.00208
				1.00274
				1.00144
				1.00201
				1.00067
				1.00103
				0.999831
				0.999888
				0.999015
				0.998729
				0.998391
				0.997785
				0.998106
				0.99725
				0.998234
				0.997227
				0.998644
				0.99767
				0.999169
				0.998402
				0.999651
				0.999207
				0.99992
				0.999884
				0.999546
				1.00037
				0.993433
				0.998746
				0.995979
				0.996431
				1.00032
				0.998508
				0.999968
				0.999893
				0.99984
				0.999968
				0.999592
				0.999844
				0.999338
				0.999664
				0.999161
				0.999514
				0.999137
				0.999452
				0.999304
				0.999512
				0.999629
				0.999693
				1.00005
				0.999967
				1.00049
				1.00029
				1.0009
				1.0006
				1.00123
				1.00087
				1.00145
				1.00107
				1.00157
				1.00119
				1.00157
				1.00123
				1.00145
				1.00119
				1.00122
				1.00107
				1.00089
				1.00087
				1.00049
				1.0006
				1.00004
				1.00028
				0.99962
				0.999961
				0.999295
				0.999686
				0.999128
				0.999505
				0.999153
				0.999445
				0.999332
				0.999508
				0.999587
				0.999659
				0.999837
				0.99984
				0.999966
				0.999965
				1.00032
				0.999891
				0.995971
				0.998486
				0.996183
				0.995575
				0.999902
				1.0005
				0.999882
				0.999641
				0.999827
				0.999691
				0.999798
				0.999674
				0.999801
				0.99966
				0.999838
				0.999666
				0.999917
				0.999715
				1.00004
				0.99982
				1.00021
				0.999992
				1.0004
				1.00021
				1.00057
				1.00045
				1.00072
				1.00066
				1.00082
				1.00082
				1.00089
				1.00094
				1.00093
				1.001
				1.00093
				1.00102
				1.00089
				1.001
				1.00082
				1.00094
				1.00071
				1.00082
				1.00057
				1.00065
				1.00039
				1.00044
				1.00021
				1.00021
				1.00004
				0.999985
				0.99991
				0.999813
				0.999831
				0.999708
				0.999794
				0.99966
				0.999793
				0.999654
				0.999823
				0.999669
				0.999878
				0.999687
				0.9999
				0.999639
				0.996184
				1.0005
			</DataArray>
			<DataArray type="Float64" Name="mach-number" Format="ascii">
				0.00591708
				0.00725746
				0.117885
				0.0874474
				0.243286
				0.203362
				0.375281
				0.319468
				0.503758
				0.435473
				0.621872
				0.542239
				0.721979
				0.6331
				0.773307
				0.708271
				0.76602
				0.723657
				0.712715
				0.683795
				0.61856
				0.617993
				0.512324
				0.539
				0.399698
				0.445039
				0.280477
				0.339186
				0.164316
				0.232211
				0.063113
				0.13569
				0.063281
				0.0651429
				0.164545
				0.135841
				0.280732
				0.232427
				0.399977
				0.339429
				0.512635
				0.445303
				0.618938
				0.539287
				0.713171
				0.618332
				0.76654
				0.684196
				0.773855
				0.724093
				0.722507
				0.708714
				0.622338
				0.633511
				0.504194
				0.542618
				0.375725
				0.435846
				0.243757
				0.31983
				0.118323
				0.203759
				0.00565957
				0.087841
				0.149192
				0.0149391
				0.249441
				0.176228
				0.312859
				0.260843
				0.370608
				0.329773
				0.428544
				0.401213
				0.483537
				0.470207
				0.531873
				0.531329
				0.56176
				0.58133
				0.559527
				0.600731
				0.528325
				0.582256
				0.483519
				0.536088
				0.429435
				0.475683
				0.368631
				0.405126
				0.309262
				0.331199
				0.257834
				0.258963
				0.219635
				0.194023
				0.219669
				0.146228
				0.257934
				0.194121
				0.309399
				0.259117
				0.368802
				0.33138
				0.429633
				0.405337
				0.483742
				0.475927
				0.528583
				0.536375
				0.559823
				0.582587
				0.562072
				0.601089
				0.532162
				0.581678
				0.483783
				0.531633
				0.428744
				0.470457
				0.37076
				0.401413
				0.312961
				0.32991
				0.249479
				0.260918
				0.149437
				0.176438
				0.194058
				0.198647
				0.288458
				0.286482
				0.326852
				0.326958
				0.363762
				0.355472
				0.401033
				0.384205
				0.436318
				0.413606
				0.465594
				0.440658
				0.482594
				0.46002
				0.48231
				0.466412
				0.464632
				0.457956
				0.434551
				0.437829
				0.397874
				0.410031
				0.359603
				0.379902
				0.323584
				0.350968
				0.291901
				0.32708
				0.267268
				0.309262
				0.26729
				0.299784
				0.29197
				0.309302
				0.323678
				0.327142
				0.359722
				0.35106
				0.398021
				0.380019
				0.434725
				0.410172
				0.464829
				0.43799
				0.482524
				0.458135
				0.48281
				0.466603
				0.465796
				0.460207
				0.436496
				0.440825
				0.401183
				0.413746
				0.363879
				0.38431
				0.326942
				0.35554
				0.288524
				0.326961
				0.194349
				0.286507
				0.300762
				0.240626
				0.346122
				0.318837
				0.361702
				0.345916
				0.374823
				0.362604
				0.387891
				0.379643
				0.400511
				0.396609
				0.410501
				0.411428
				0.415667
				0.421596
				0.414633
				0.424674
				0.407733
				0.419836
				0.396526
				0.40792
				0.383212
				0.391607
				0.370301
				0.374174
				0.359604
				0.357869
				0.352244
				0.344168
				0.346262
				0.332414
				0.346272
				0.327061
				0.352271
				0.332439
				0.359649
				0.34421
				0.370364
				0.357931
				0.383292
				0.374254
				0.396621
				0.391707
				0.407842
				0.408037
				0.41475
				0.419965
				0.415785
				0.424809
				0.410612
				0.421726
				0.400608
				0.411543
				0.387972
				0.3967
				0.37489
				0.379706
				0.361756
				0.362633
				0.346187
				0.345895
				0.300769
				0.318855
				0.315577
				0.314174
				0.359136
				0.354919
				0.368196
				0.369376
				0.375893
				0.375308
				0.383309
				0.380785
				0.390129
				0.386047
				0.395357
				0.390597
				0.397853
				0.393436
				0.397042
				0.393909
				0.39319
				0.392021
				0.38699
				0.388202
				0.379714
				0.383048
				0.372716
				0.377666
				0.366844
				0.373003
				0.362522
				0.369678
				0.358797
				0.367824
				0.358803
				0.36655
				0.362542
				0.367835
				0.366875
				0.3697
				0.372759
				0.373036
				0.379769
				0.37771
				0.387055
				0.383102
				0.393264
				0.388263
				0.397123
				0.392089
				0.397937
				0.393981
				0.395441
				0.393509
				0.390212
				0.390667
				0.38339
				0.386114
				0.375976
				0.380842
				0.368287
				0.375341
				0.359204
				0.369346
				0.315709
				0.35487
				0.35241
				0.324461
				0.374746
				0.366334
				0.378064
				0.374884
				0.380657
				0.378558
				0.382869
				0.381718
				0.384634
				0.384522
				0.385765
				0.386732
				0.386061
				0.387965
				0.385361
				0.387884
				0.383726
				0.386428
				0.381522
				0.383876
				0.379204
				0.380766
				0.377105
				0.377661
				0.375464
				0.374987
				0.374404
				0.373005
				0.373851
				0.371675
				0.373854
				0.370998
				0.374414
				0.371682
				0.375479
				0.37302
				0.377126
				0.375009
				0.379231
				0.37769
				0.381553
				0.3808
				0.383759
				0.383915
				0.385395
				0.38647
				0.386094
				0.387926
				0.385795
				0.388005
				0.384658
				0.386767
				0.382884
				0.384547
				0.380661
				0.381729
				0.378058
				0.378545
				0.374753
				0.374822
				0.352424
				0.366257
				0.358271
				0.355733
				0.37754
				0.376647
				0.379518
				0.379756
				0.380811
				0.380883
				0.381812
				0.381531
				0.382579
				0.381993
				0.383053
				0.382313
				0.383116
				0.382416
				0.382692
				0.382211
				0.381839
				0.381687
				0.380716
				0.380926
				0.379526
				0.380065
				0.37845
				0.37924
				0.377615
				0.378556
				0.377091
				0.378079
				0.376816
				0.377846
				0.376818
				0.377803
				0.377097
				0.377849
				0.377624
				0.378085
				0.378463
				0.378565
				0.379542
				0.379252
				0.380736
				0.380079
				0.38186
				0.380943
				0.382714
				0.381704
				0.383137
				0.382229
				0.383072
				0.382433
				0.382594
				0.382328
				0.381823
				0.382006
				0.380821
				0.381542
				0.379532
				0.380893
				0.377563
				0.379771
				0.358308
				0.376685
				0.372926
				0.357978
				0.380744
				0.378509
				0.381558
				0.381664
				0.381633
				0.382014
				0.381591
				0.382066
				0.381516
				0.382031
				0.381392
				0.381953
				0.381181
				0.381784
				0.380864
				0.381477
				0.380457
				0.381022
				0.38001
				0.380461
				0.37958
				0.379877
				0.37921
				0.37935
				0.378925
				0.378931
				0.378735
				0.378646
				0.37864
				0.378535
				0.378641
				0.378536
				0.378738
				0.378537
				0.37893
				0.378651
				0.379217
				0.378937
				0.379588
				0.379359
				0.38002
				0.379888
				0.380468
				0.380474
				0.380875
				0.381035
				0.381191
				0.381492
				0.381402
				0.381798
				0.381525
				0.381966
				0.381599
				0.382042
				0.38164
				0.382076
				0.381564
				0.382024
				0.380749
				0.381674
				0.37293
				0.378517
			</DataArray>
			<DataArray type="Float64" Name="pressure" Format="ascii">
				5.14929
				5.15081
				5.12231
				5.09534
				4.9721
				5.0499
				4.72354
				4.90719
				4.39737
				4.67518
				4.04669
				4.38768
				3.73933
				4.09972
				3.57558
				3.87956
				3.59889
				3.87413
				3.81952
				3.98932
				4.17162
				4.22482
				4.53861
				4.49149
				4.87
				4.78878
				5.15223
				5.07025
				5.3385
				5.26752
				5.40429
				5.37755
				5.40416
				5.43087
				5.33817
				5.37742
				5.15167
				5.26717
				4.8692
				5.06968
				4.53758
				4.788
				4.17025
				4.49055
				3.81785
				4.22363
				3.59703
				3.98784
				3.57358
				3.87247
				3.73741
				3.87792
				4.04503
				4.09818
				4.39595
				4.38632
				4.72239
				4.67404
				4.97135
				4.90632
				5.12192
				5.04912
				5.1493
				5.09526
				5.10454
				5.15888
				5.0889
				5.16039
				5.02243
				5.09266
				4.92391
				4.97745
				4.79327
				4.82276
				4.6384
				4.64024
				4.48344
				4.46534
				4.40623
				4.31354
				4.43361
				4.2545
				4.5316
				4.31528
				4.66094
				4.47976
				4.82687
				4.67788
				4.99622
				4.87639
				5.13359
				5.05405
				5.21954
				5.19477
				5.25222
				5.28411
				5.25217
				5.3192
				5.21938
				5.28397
				5.1333
				5.19448
				4.99578
				5.05362
				4.82629
				4.87581
				4.66023
				4.67713
				4.53075
				4.4788
				4.43261
				4.31412
				4.40517
				4.25322
				4.48244
				4.31231
				4.63757
				4.46428
				4.79264
				4.6394
				4.92345
				4.8221
				5.0221
				4.977
				5.08874
				5.09231
				5.10456
				5.16032
				5.09381
				5.07243
				5.07531
				5.03601
				5.01453
				5.02408
				4.94173
				4.97907
				4.85498
				4.91781
				4.76601
				4.84735
				4.68878
				4.77429
				4.64455
				4.72402
				4.64843
				4.71334
				4.70414
				4.74224
				4.79383
				4.7983
				4.89643
				4.874
				4.99204
				4.95702
				5.07303
				5.03099
				5.13173
				5.0847
				5.15978
				5.11577
				5.15974
				5.12964
				5.13161
				5.11571
				5.07282
				5.08457
				4.99174
				5.03076
				4.89603
				4.9567
				4.79332
				4.8736
				4.70353
				4.79783
				4.64774
				4.74172
				4.64386
				4.71277
				4.68815
				4.72345
				4.76546
				4.77378
				4.85452
				4.84693
				4.94137
				4.91747
				5.01429
				4.97881
				5.07519
				5.02395
				5.09379
				5.03573
				4.98867
				5.00265
				4.98641
				5.01201
				4.97491
				4.99574
				4.95051
				4.96486
				4.9209
				4.92836
				4.89002
				4.88951
				4.86472
				4.85325
				4.85264
				4.82806
				4.85736
				4.82161
				4.87714
				4.83684
				4.90725
				4.87028
				4.94223
				4.91351
				4.97597
				4.95765
				5.00317
				4.99693
				5.02133
				5.02778
				5.0317
				5.04586
				5.03168
				5.05267
				5.02127
				5.04581
				5.00306
				5.02768
				4.97581
				4.99677
				4.94202
				4.95745
				4.907
				4.91325
				4.87685
				4.86995
				4.85704
				4.83647
				4.85231
				4.82123
				4.8644
				4.82769
				4.88973
				4.85292
				4.92068
				4.88924
				4.95036
				4.92814
				4.97477
				4.96471
				4.98615
				4.99566
				4.98871
				5.01195
				4.9815
				4.97557
				4.97251
				4.96285
				4.96202
				4.96279
				4.94754
				4.95378
				4.93164
				4.94242
				4.91576
				4.92919
				4.90289
				4.91791
				4.8969
				4.91135
				4.90008
				4.91001
				4.91115
				4.91417
				4.92708
				4.92428
				4.94521
				4.93855
				4.96247
				4.95314
				4.97677
				4.96569
				4.98666
				4.97477
				4.9918
				4.98004
				4.99178
				4.98261
				4.98661
				4.98002
				4.97669
				4.97472
				4.96236
				4.96561
				4.94507
				4.95303
				4.92691
				4.93842
				4.91095
				4.92413
				4.89986
				4.91401
				4.89668
				4.90982
				4.90267
				4.91116
				4.91554
				4.91773
				4.93141
				4.92903
				4.94732
				4.94226
				4.96183
				4.95361
				4.97228
				4.96274
				4.9815
				4.96303
				4.93794
				4.94775
				4.95104
				4.94941
				4.94794
				4.95248
				4.94436
				4.94749
				4.94045
				4.94161
				4.93673
				4.93537
				4.93399
				4.93006
				4.93313
				4.92701
				4.9348
				4.92728
				4.93894
				4.93107
				4.9447
				4.93776
				4.95086
				4.94586
				4.95648
				4.95378
				4.96095
				4.96053
				4.96395
				4.96551
				4.96541
				4.96849
				4.9654
				4.96968
				4.96392
				4.96847
				4.96091
				4.96547
				4.95642
				4.96047
				4.95079
				4.9537
				4.94461
				4.94577
				4.93884
				4.93765
				4.9347
				4.93096
				4.93303
				4.92716
				4.9339
				4.9269
				4.93666
				4.92996
				4.94041
				4.93531
				4.94436
				4.94159
				4.948
				4.94753
				4.9512
				4.95261
				4.93806
				4.94958
				4.94731
				4.94931
				4.9479
				4.94744
				4.94671
				4.94611
				4.94513
				4.94584
				4.94337
				4.94505
				4.94175
				4.94403
				4.94067
				4.94319
				4.9406
				4.94286
				4.94176
				4.94329
				4.94398
				4.94454
				4.94688
				4.94642
				4.94998
				4.94862
				4.95281
				4.95077
				4.95507
				4.95261
				4.95661
				4.95398
				4.9574
				4.95481
				4.95739
				4.95508
				4.95659
				4.9548
				4.95504
				4.95396
				4.95277
				4.95259
				4.94993
				4.95074
				4.94683
				4.94858
				4.94392
				4.94638
				4.9417
				4.94449
				4.94054
				4.94324
				4.94062
				4.94282
				4.9417
				4.94315
				4.94333
				4.944
				4.9451
				4.94502
				4.94667
				4.94582
				4.94785
				4.94608
				4.94727
				4.94733
				4.93686
				4.94544
				4.94545
				4.94366
				4.94542
				4.9443
				4.94528
				4.94418
				4.94518
				4.94419
				4.94521
				4.94418
				4.94546
				4.94426
				4.946
				4.94461
				4.94687
				4.94534
				4.94805
				4.94653
				4.94933
				4.94807
				4.95053
				4.94968
				4.95153
				4.95114
				4.95228
				4.95229
				4.95276
				4.95309
				4.953
				4.95353
				4.953
				4.95366
				4.95275
				4.95352
				4.95226
				4.95307
				4.95151
				4.95227
				4.9505
				4.95111
				4.94929
				4.94964
				4.948
				4.94802
				4.94683
				4.94648
				4.94595
				4.94529
				4.94541
				4.94456
				4.94516
				4.94422
				4.94514
				4.94413
				4.94525
				4.94415
				4.94539
				4.94415
				4.94543
				4.94428
				4.93685
				4.94364
			</DataArray>
			<DataArray type="Float64" Name="velocity" NumberOfComponents="3" Format="ascii">
				-0.0124335 0.00981272 0.0 
				-0.019422 0.000391992 0.0 
				0.230958 -0.213031 0.0 
				0.217193 -0.085817 0.0 
				0.448073 -0.46397 0.0 
				0.453345 -0.294419 0.0 
				0.745673 -0.646023 0.0 
				0.685791 -0.492126 0.0 
				1.10021 -0.710846 0.0 
				0.965754 -0.607833 0.0 
				1.46467 -0.636623 0.0 
				1.26757 -0.611277 0.0 
				1.78197 -0.422742 0.0 
				1.55349 -0.485667 0.0 
				1.94498 -0.107927 0.0 
				1.78724 -0.250654 0.0 
				1.91684 0.236538 0.0 
				1.84118 0.0536606 0.0 
				1.72708 0.541249 0.0 
				1.71656 0.341236 0.0 
				1.4102 0.732853 0.0 
				1.49267 0.560228 0.0 
				1.0632 0.803126 0.0 
				1.22651 0.676356 0.0 
				0.732535 0.75232 0.0 
				0.939707 0.691337 0.0 
				0.447006 0.59324 0.0 
				0.667173 0.598587 0.0 
				0.239538 0.365974 0.0 
				0.447995 0.424293 0.0 
				0.122396 0.115637 0.0 
				0.294808 0.209482 0.0 
				0.122438 -0.116243 0.0 
				0.173962 -0.000287191 0.0 
				0.239712 -0.366584 0.0 
				0.294889 -0.210059 0.0 
				0.447308 -0.593841 0.0 
				0.448232 -0.424866 0.0 
				0.732956 -0.752899 0.0 
				0.667503 -0.599159 0.0 
				1.06377 -0.803648 0.0 
				0.940153 -0.691855 0.0 
				1.41097 -0.733321 0.0 
				1.22707 -0.676816 0.0 
				1.72806 -0.541606 0.0 
				1.4934 -0.560605 0.0 
				1.918 -0.236709 0.0 
				1.71748 -0.341465 0.0 
				1.94621 0.108001 0.0 
				1.84218 -0.0536948 0.0 
				1.78313 0.423069 0.0 
				1.78825 0.250858 0.0 
				1.46565 0.637142 0.0 
				1.55438 0.486099 0.0 
				1.10103 0.711558 0.0 
				1.2683 0.61191 0.0 
				0.746359 0.646965 0.0 
				0.966328 0.608679 0.0 
				0.448603 0.465178 0.0 
				0.686112 0.493277 0.0 
				0.231476 0.21419 0.0 
				0.453772 0.295656 0.0 
				-0.0123095 -0.00883136 0.0 
				0.217954 0.086676 0.0 
				0.386653 -0.0937619 0.0 
				-0.0399923 0.000237328 0.0 
				0.630971 -0.201951 0.0 
				0.442923 -0.155758 0.0 
				0.777357 -0.285012 0.0 
				0.635856 -0.274892 0.0 
				0.916368 -0.338549 0.0 
				0.788373 -0.371492 0.0 
				1.06752 -0.353681 0.0 
				0.965468 -0.424936 0.0 
				1.2224 -0.315711 0.0 
				1.15607 -0.416902 0.0 
				1.36528 -0.213516 0.0 
				1.34017 -0.332433 0.0 
				1.45476 -0.052278 0.0 
				1.49185 -0.179683 0.0 
				1.44583 0.12426 0.0 
				1.54886 0.0303024 0.0 
				1.34788 0.270879 0.0 
				1.48587 0.235755 0.0 
				1.20811 0.36935 0.0 
				1.33626 0.390627 0.0 
				1.05007 0.409009 0.0 
				1.1472 0.47715 0.0 
				0.891662 0.38668 0.0 
				0.945992 0.488271 0.0 
				0.756453 0.312777 0.0 
				0.762363 0.429125 0.0 
				0.652068 0.206973 0.0 
				0.607531 0.320197 0.0 
				0.577555 0.0818767 0.0 
				0.484785 0.176187 0.0 
				0.577581 -0.0823266 0.0 
				0.389418 -0.000240851 0.0 
				0.652201 -0.207424 0.0 
				0.484884 -0.176671 0.0 
				0.756651 -0.313236 0.0 
				0.607736 -0.320671 0.0 
				0.891951 -0.387117 0.0 
				0.762633 -0.4296 0.0 
				1.05045 -0.409401 0.0 
				0.946365 -0.48872 0.0 
				1.20859 -0.369677 0.0 
				1.1477 -0.477548 0.0 
				1.34848 -0.271117 0.0 
				1.33689 -0.390955 0.0 
				1.44655 -0.124371 0.0 
				1.48665 -0.23596 0.0 
				1.45552 0.0523438 0.0 
				1.54972 -0.03033 0.0 
				1.36596 0.21376 0.0 
				1.49268 0.179864 0.0 
				1.22294 0.316087 0.0 
				1.34085 0.332796 0.0 
				1.06791 0.354131 0.0 
				1.15656 0.417381 0.0 
				0.916614 0.339008 0.0 
				0.965778 0.425493 0.0 
				0.777506 0.285381 0.0 
				0.78849 0.372072 0.0 
				0.630944 0.20235 0.0 
				0.635838 0.275398 0.0 
				0.387204 0.0941989 0.0 
				0.443344 0.156203 0.0 
				0.515752 -0.0342116 0.0 
				0.528738 0.000232745 0.0 
				0.754798 -0.119747 0.0 
				0.757367 -0.0599729 0.0 
				0.846525 -0.171257 0.0 
				0.856877 -0.113102 0.0 
				0.936771 -0.203099 0.0 
				0.926239 -0.146394 0.0 
				1.03274 -0.209128 0.0 
				0.998072 -0.162167 0.0 
				1.12863 -0.181431 0.0 
				1.07501 -0.154047 0.0 
				1.21092 -0.118712 0.0 
				1.14824 -0.11813 0.0 
				1.25896 -0.0262746 0.0 
				1.20179 -0.0539856 0.0 
				1.25608 0.0785646 0.0 
				1.21893 0.027064 0.0 
				1.20227 0.171322 0.0 
				1.19351 0.106018 0.0 
				1.1147 0.233303 0.0 
				1.13528 0.166906 0.0 
				1.01408 0.255476 0.0 
				1.05855 0.199218 0.0 
				0.916823 0.240271 0.0 
				0.980117 0.19983 0.0 
				0.831947 0.1964 0.0 
				0.909609 0.173521 0.0 
				0.76113 0.131461 0.0 
				0.854746 0.127932 0.0 
				0.706148 0.0490062 0.0 
				0.814857 0.0705232 0.0 
				0.70618 -0.0493629 0.0 
				0.793146 -0.00016363 0.0 
				0.761251 -0.131811 0.0 
				0.814933 -0.0708506 0.0 
				0.832116 -0.196743 0.0 
				0.854858 -0.128256 0.0 
				0.917053 -0.240603 0.0 
				0.909788 -0.173838 0.0 
				1.01439 -0.255777 0.0 
				0.980362 -0.200119 0.0 
				1.1151 -0.23355 0.0 
				1.05887 -0.199465 0.0 
				1.20274 -0.17149 0.0 
				1.13567 -0.16709 0.0 
				1.25662 -0.0786282 0.0 
				1.19396 -0.106126 0.0 
				1.2595 0.0263377 0.0 
				1.21941 -0.0270689 0.0 
				1.2114 0.11889 0.0 
				1.20225 0.0540903 0.0 
				1.12904 0.181701 0.0 
				1.14864 0.118335 0.0 
				1.03306 0.209475 0.0 
				1.07532 0.15434 0.0 
				0.936992 0.203491 0.0 
				0.998287 0.16252 0.0 
				0.846676 0.171678 0.0 
				0.926345 0.146823 0.0 
				0.754897 0.120298 0.0 
				0.856815 0.113621 0.0 
				0.516475 0.0347336 0.0 
				0.757376 0.0604798 0.0 
				0.795852 -0.0256132 0.0 
				0.639137 -0.000103054 0.0 
				0.912563 -0.0420285 0.0 
				0.842563 -0.0407627 0.0 
				0.951683 -0.0573095 0.0 
				0.910137 -0.0673173 0.0 
				0.984892 -0.0655415 0.0 
				0.951862 -0.0834668 0.0 
				1.01827 -0.0651733 0.0 
				0.99496 -0.0900024 0.0 
				1.05104 -0.0537371 0.0 
				1.03903 -0.0826968 0.0 
				1.07729 -0.0308186 0.0 
				1.07829 -0.0605529 0.0 
				1.09078 0.000893741 0.0 
				1.10548 -0.024647 0.0 
				1.08759 0.0356723 0.0 
				1.11341 0.0198707 0.0 
				1.06871 0.0657088 0.0 
				1.09955 0.0639182 0.0 
				1.03874 0.084873 0.0 
				1.06669 0.0978905 0.0 
				1.00423 0.0905352 0.0 
				1.02318 0.115461 0.0 
				0.971752 0.0834117 0.0 
				0.978303 0.115299 0.0 
				0.945607 0.0663223 0.0 
				0.937843 0.100443 0.0 
				0.92804 0.0428914 0.0 
				0.904804 0.0746436 0.0 
				0.913463 0.0155531 0.0 
				0.876373 0.0412393 0.0 
				0.913484 -0.0157678 0.0 
				0.863393 -0.00011986 0.0 
				0.928098 -0.0430995 0.0 
				0.876427 -0.0414743 0.0 
				0.945709 -0.0665263 0.0 
				0.904894 -0.0748721 0.0 
				0.9719 -0.0836016 0.0 
				0.937981 -0.10066 0.0 
				1.00442 -0.0906976 0.0 
				0.978487 -0.115499 0.0 
				1.03897 -0.0849986 0.0 
				1.02341 -0.115629 0.0 
				1.06898 -0.0657891 0.0 
				1.06698 -0.0980143 0.0 
				1.08789 -0.0356996 0.0 
				1.09987 -0.0639833 0.0 
				1.09108 -0.000867224 0.0 
				1.11375 -0.019866 0.0 
				1.07757 0.0308972 0.0 
				1.10581 0.0247215 0.0 
				1.05128 0.0538571 0.0 
				1.07858 0.0606859 0.0 
				1.01847 0.0653067 0.0 
				1.03925 0.0828725 0.0 
				0.985054 0.0656661 0.0 
				0.995102 0.0901941 0.0 
				0.951815 0.057388 0.0 
				0.951919 0.0836575 0.0 
				0.912726 0.0420095 0.0 
				0.910071 0.0674659 0.0 
				0.795872 0.0255426 0.0 
				0.842605 0.0407674 0.0 
				0.835374 -0.0053859 0.0 
				0.830547 0.00015039 0.0 
				0.945907 -0.0194197 0.0 
				0.93593 -0.00801268 0.0 
				0.969463 -0.0275302 0.0 
				0.972818 -0.015053 0.0 
				0.988987 -0.0322065 0.0 
				0.98796 -0.0205177 0.0 
				1.00795 -0.0315493 0.0 
				1.00197 -0.0220303 0.0 
				1.02549 -0.0250559 0.0 
				1.01539 -0.0193588 0.0 
				1.039 -0.0126825 0.0 
				1.02699 -0.012104 0.0 
				1.04541 0.00423298 0.0 
				1.03416 -0.00100126 0.0 
				1.04318 0.0225509 0.0 
				1.03517 0.0121324 0.0 
				1.03294 0.0382759 0.0 
				1.0301 0.0246431 0.0 
				1.01668 0.048168 0.0 
				1.02013 0.0340209 0.0 
				0.997937 0.0506194 0.0 
				1.00688 0.0381713 0.0 
				0.980211 0.0463882 0.0 
				0.993235 0.0369102 0.0 
				0.965553 0.0369921 0.0 
				0.981593 0.0311645 0.0 
				0.954854 0.0240827 0.0 
				0.973426 0.0222618 0.0 
				0.945427 0.00881801 0.0 
				0.96893 0.011858 0.0 
				0.945443 -0.00896385 0.0 
				0.965749 -6.40935e-05 0.0 
				0.954901 -0.0242244 0.0 
				0.968957 -0.0119845 0.0 
				0.965628 -0.0371284 0.0 
				0.973478 -0.0223862 0.0 
				0.980316 -0.0465128 0.0 
				0.981675 -0.0312808 0.0 
				0.998072 -0.0507258 0.0 
				0.993345 -0.0370108 0.0 
				1.01684 -0.0482474 0.0 
				1.00701 -0.0382499 0.0 
				1.03313 -0.038321 0.0 
				1.02028 -0.0340713 0.0 
				1.04339 -0.0225583 0.0 
				1.03027 -0.0246626 0.0 
				1.04563 -0.00420098 0.0 
				1.03536 -0.0121161 0.0 
				1.03921 0.0127546 0.0 
				1.03434 0.00105974 0.0 
				1.0257 0.0251699 0.0 
				1.02716 0.0122066 0.0 
				1.00815 0.031709 0.0 
				1.01556 0.0195083 0.0 
				0.989195 0.0324215 0.0 
				1.00211 0.0222376 0.0 
				0.969698 0.0278432 0.0 
				0.988044 0.0208075 0.0 
				0.946085 0.0198454 0.0 
				0.972741 0.0154673 0.0 
				0.835715 0.00592451 0.0 
				0.9358 0.00853968 0.0 
				0.929581 -0.0117056 0.0 
				0.857917 -0.000827055 0.0 
				0.98683 -0.00656741 0.0 
				0.964895 -0.00795559 0.0 
				0.995049 -0.00888312 0.0 
				0.986892 -0.0107443 0.0 
				1.00164 -0.00931843 0.0 
				0.996278 -0.0126858 0.0 
				1.00731 -0.00821098 0.0 
				1.00434 -0.0126397 0.0 
				1.01185 -0.0054201 0.0 
				1.0115 -0.0103703 0.0 
				1.01477 -0.0011052 0.0 
				1.01718 -0.00578812 0.0 
				1.01551 0.00421572 0.0 
				1.02035 0.000803555 0.0 
				1.01366 0.00958557 0.0 
				1.02011 0.00841331 0.0 
				1.00942 0.0137506 0.0 
				1.01632 0.0153645 0.0 
				1.00377 0.0158947 0.0 
				1.00973 0.0201309 0.0 
				0.997872 0.0159773 0.0 
				1.00175 0.0219792 0.0 
				0.992552 0.0142218 0.0 
				0.993827 0.0210102 0.0 
				0.988408 0.0110118 0.0 
				0.987041 0.0176858 0.0 
				0.985748 0.00688677 0.0 
				0.982043 0.0126725 0.0 
				0.984364 0.00239609 0.0 
				0.978677 0.00672139 0.0 
				0.984371 -0.00246119 0.0 
				0.976925 -4.12202e-05 0.0 
				0.985771 -0.00694932 0.0 
				0.978696 -0.00680202 0.0 
				0.988447 -0.0110699 0.0 
				0.982079 -0.0127493 0.0 
				0.992605 -0.0142724 0.0 
				0.987096 -0.0177557 0.0 
				0.997938 -0.0160179 0.0 
				0.993899 -0.0210698 0.0 
				1.00385 -0.0159224 0.0 
				1.00184 -0.0220246 0.0 
				1.00951 -0.0137617 0.0 
				1.00983 -0.0201576 0.0 
				1.01375 -0.00957656 0.0 
				1.01643 -0.0153679 0.0 
				1.0156 -0.00418648 0.0 
				1.02022 -0.00839154 0.0 
				1.01484 0.00115181 0.0 
				1.02045 -0.0007569 0.0 
				1.01191 0.00548018 0.0 
				1.01727 0.00585867 0.0 
				1.00734 0.00827858 0.0 
				1.01157 0.0104628 0.0 
				1.00165 0.00938007 0.0 