<VTKFile type="UnstructuredGrid" version="0.1" byte_order="LittleEndian">
<UnstructuredGrid>
	<Piece NumberOfPoints="80" NumberOfCells="128">
		<CellData Scalars="density" Vectors="velocity">
			<DataArray type="Float64" Name="density" Format="ascii">
				1.00893
				1.00363
				0.984842
				0.998888
				0.90643
				0.967123
				0.826542
				0.906359
				0.835219
				0.884767
				0.927821
				0.932135
				1.01837
				0.998376
				1.06124
				1.04772
				1.06124
				1.0648
				1.01837
				1.04772
				0.927826
				0.998378
				0.835227
				0.932139
				0.82655
				0.884773
				0.906434
				0.906363
				0.984845
				0.967125
				1.00894
				0.998889
				0.999718
				0.998683
				1.00192
				1.01342
				0.992178
				0.996561
				0.983821
				0.975325
				0.98526
				0.964225
				0.996013
				0.97576
				1.00819
				0.998581
				1.0151
				1.0169
				1.0151
				1.02337
				1.00819
				1.0169
				0.996014
				0.998582
				0.985261
				0.975763
				0.983823
				0.964228
				0.992179
				0.975328
				1.00192
				0.996562
				0.999718
				1.01342
				0.998415
				0.998373
				1.00121
				0.999586
				0.997854
				0.999746
				0.995854
				0.99875
				0.996702
				0.998405
				0.999726
				0.99943
				1.00281
				1.00104
				1.00447
				1.00224
				1.00447
				1.00267
				1.00281
				1.00224
				0.999727
				1.00104
				0.996702
				0.99943
				0.995855
				0.998405
				0.997855
				0.99875
				1.00121
				0.999746
				0.998415
				0.999586
				0.998366
				0.995281
				0.999671
				1.00055
				0.999791
				0.999466
				0.999868
				0.999482
				1.00008
				0.999671
				1.00035
				1.0001
				1.00057
				1.00056
				1.00069
				1.00087
				1.00069
				1.00099
				1.00057
				1.00087
				1.00035
				1.00056
				1.00008
				1.0001
				0.999868
				0.999671
				0.999791
				0.999482
				0.999671
				0.999466
				0.998366
				1.00055
			</DataArray>
			<DataArray type="Float64" Name="mach-number" Format="ascii">
				0.121105
				0.110473
				0.327719
				0.254998
				0.538664
				0.42189
				0.709823
				0.566978
				0.705411
				0.618841
				0.537825
				0.544163
				0.330067
				0.406203
				0.13192
				0.259588
				0.131914
				0.153559
				0.33006
				0.259584
				0.537815
				0.406196
				0.705397
				0.544155
				0.709809
				0.618831
				0.538655
				0.566969
				0.327713
				0.421883
				0.121102
				0.254993
				0.309977
				0.198032
				0.366877
				0.334758
				0.396598
				0.383266
				0.422519
				0.43438
				0.422359
				0.460435
				0.394982
				0.435881
				0.361656
				0.379082
				0.337587
				0.324968
				0.337586
				0.271807
				0.361654
				0.324966
				0.394979
				0.379078
				0.422355
				0.435876
				0.422515
				0.460429
				0.396595
				0.434375
				0.366874
				0.383262
				0.309973
				0.334754
				0.353837
				0.350921
				0.376665
				0.374285
				0.384417
				0.380542
				0.390633
				0.384558
				0.388967
				0.385213
				0.381099
				0.382062
				0.373024
				0.377628
				0.369484
				0.374643
				0.369484
				0.373218
				0.373023
				0.374643
				0.381097
				0.377627
				0.388965
				0.382061
				0.390631
				0.385212
				0.384415
				0.384557
				0.376665
				0.380541
				0.353833
				0.374284
				0.376038
				0.356133
				0.381373
				0.383533
				0.381422
				0.381868
				0.381112
				0.382108
				0.380527
				0.381552
				0.3798
				0.380419
				0.3792
				0.379197
				0.378856
				0.378412
				0.378856
				0.378023
				0.3792
				0.378412
				0.379799
				0.379197
				0.380526
				0.380418
				0.381112
				0.381551
				0.381422
				0.382108
				0.381373
				0.381867
				0.376038
				0.383533
			</DataArray>
			<DataArray type="Float64" Name="pressure" Format="ascii">
				5.1554
				5.10737
				4.89925
				5.02398
				4.35506
				4.75203
				3.81136
				4.33691
				3.84864
				4.19674
				4.4419
				4.50162
				5.05565
				4.94418
				5.36618
				5.28238
				5.36618
				5.41153
				5.05567
				5.28239
				4.44193
				4.94419
				3.8487
				4.50165
				3.81141
				4.19678
				4.35509
				4.33695
				4.89926
				4.75204
				5.1554
				5.02399
				5.00302
				5.08186
				4.96885
				5.05044
				4.89607
				4.93146
				4.83551
				4.78483
				4.84484
				4.70787
				4.91971
				4.78307
				5.00359
				4.93748
				5.05216
				5.06359
				5.05216
				5.12235
				5.0036
				5.06359
				4.91972
				4.93749
				4.84485
				4.78309
				4.83552
				4.70789
				4.89608
				4.78484
				4.96886
				4.93147
				5.00302
				5.05045
				4.96278
				4.96031
				4.95423
				4.94925
				4.93193
				4.94475
				4.91792
				4.93766
				4.92379
				4.9354
				4.94473
				4.94252
				4.96602
				4.95368
				4.97747
				4.96203
				4.97747
				4.96508
				4.96602
				4.96203
				4.94473
				4.95368
				4.92379
				4.94252
				4.91793
				4.93541
				4.93193
				4.93766
				4.95423
				4.94475
				4.96278
				4.94925
				4.94272
				4.94523
				4.94437
				4.94621
				4.94512
				4.94281
				4.94568
				4.94295
				4.9471
				4.94429
				4.94899
				4.94724
				4.95054
				4.95048
				4.95134
				4.9526
				4.95134
				4.95341
				4.95054
				4.9526
				4.94899
				4.95049
				4.9471
				4.94724
				4.94568
				4.94429
				4.94512
				4.94295
				4.94437
				4.94281
				4.94272
				4.94621
			</DataArray>
			<DataArray type="Float64" Name="velocity" NumberOfComponents="3" Format="ascii">
				0.299582 -0.123164 0.0 
				0.294872 -4.60588e-06 0.0 
				0.719627 -0.479711 0.0 
				0.632713 -0.239863 0.0 
				1.28704 -0.543406 0.0 
				1.02636 -0.413507 0.0 
				1.79226 -0.201229 0.0 
				1.42618 -0.345657 0.0 
				1.74984 0.384917 0.0 
				1.59471 0.00679354 0.0 
				1.20469 0.698176 0.0 
				1.3648 0.373322 0.0 
				0.635287 0.594644 0.0 
				0.959264 0.473052 0.0 
				0.276559 0.216129 0.0 
				0.622953 0.295925 0.0 
				0.276557 -0.216109 0.0 
				0.409604 8.36184e-06 0.0 
				0.635277 -0.594625 0.0 
				0.622948 -0.295909 0.0 
				1.20467 -0.69816 0.0 
				0.959253 -0.473039 0.0 
				1.74981 -0.384908 0.0 
				1.36478 -0.373314 0.0 
				1.79223 0.201224 0.0 
				1.59468 -0.00679534 0.0 
				1.28702 0.543395 0.0 
				1.42616 0.345647 0.0 
				0.719615 0.4797 0.0 
				1.02634 0.413497 0.0 
				0.299577 0.123154 0.0 
				0.632703 0.239853 0.0 
				0.818397 -0.0584922 0.0 
				0.528563 -2.75249e-06 0.0 
				0.962783 -0.0870198 0.0 
				0.877119 -0.111908 0.0 
				1.03867 -0.0883752 0.0 
				0.996745 -0.155425 0.0 
				1.10803 -0.0263776 0.0 
				1.13217 -0.118892 0.0 
				1.10618 0.0665299 0.0 
				1.20365 0.0194821 0.0 
				1.03205 0.117077 0.0 
				1.13011 0.163381 0.0 
				0.947662 0.103541 0.0 
				0.976775 0.201654 0.0 
				0.889929 0.0459411 0.0 
				0.847174 0.13595 0.0 
				0.889928 -0.0459339 0.0 
				0.719523 4.90047e-06 0.0 
				0.947657 -0.103535 0.0 
				0.847171 -0.13594 0.0 
				1.03205 -0.117072 0.0 
				0.976768 -0.201645 0.0 
				1.10617 -0.0665281 0.0 
				1.1301 -0.163375 0.0 
				1.10802 0.0263749 0.0 
				1.20363 -0.019482 0.0 
				1.03866 0.088369 0.0 
				1.13215 0.118887 0.0 
				0.962777 0.0870121 0.0 
				0.996735 0.155418 0.0 
				0.818387 0.058486 0.0 
				0.87711 0.111899 0.0 
				0.933404 -0.00444603 0.0 
				0.925511 -1.84448e-06 0.0 
				0.991252 -0.016692 0.0 
				0.985425 -0.00299461 0.0 
				1.01107 -0.0169101 0.0 
				1.00135 -0.00562015 0.0 
				1.02713 -0.000359689 0.0 
				1.01171 -0.000827245 0.0 
				1.02271 0.0210449 0.0 
				1.01335 0.00847619 0.0 
				1.00238 0.0305623 0.0 
				1.00519 0.0152444 0.0 
				0.981889 0.0243588 0.0 
				0.993844 0.0148046 0.0 
				0.973145 0.00871945 0.0 
				0.986303 0.00810717 0.0 
				0.973144 -0.00871585 0.0 
				0.982675 1.2154e-06 0.0 
				0.981887 -0.0243556 0.0 
				0.986302 -0.00810487 0.0 
				1.00237 -0.03056 0.0 
				0.993842 -0.0148028 0.0 
				1.0227 -0.0210441 0.0 
				1.00518 -0.0152436 0.0 
				1.02713 0.000358557 0.0 
				1.01334 -0.00847651 0.0 
				1.01106 0.0169074 0.0 
				1.01171 0.000825754 0.0 
				0.99125 0.0166885 0.0 
				1.00135 0.00561789 0.0 
				0.933393 0.00444338 0.0 
				0.985423 0.00299247 0.0 
				0.989987 -0.00420458 0.0 
				0.939283 -7.57776e-07 0.0 
				1.00355 -0.00197646 0.0 
				1.00898 -0.00188874 0.0 
				1.0037 -0.000531302 0.0 
				1.0048 -0.00148873 0.0 
				1.0029 0.000964271 0.0 
				1.00544 0.00102939 0.0 
				1.0014 0.00216828 0.0 
				1.00401 0.00323334 0.0 
				0.99954 0.00250063 0.0 
				1.00111 0.00453873 0.0 
				0.998007 0.0018698 0.0 
				0.997991 0.00410313 0.0 
				0.997127 0.000727637 0.0 
				0.995991 0.00230297 0.0 
				0.997127 -0.000727109 0.0 
				0.994993 4.71221e-07 0.0 
				0.998006 -0.0018694 0.0 
				0.99599 -0.00230208 0.0 
				0.999539 -0.00250049 0.0 
				0.99799 -0.00410247 0.0 
				1.0014 -0.00216852 0.0 
				1.00111 -0.00453851 0.0 
				1.0029 -0.00096489 0.0 
				1.00401 -0.00323368 0.0 
				1.0037 0.000530418 0.0 
				1.00544 -0.00103022 0.0 
				1.00355 0.00197548 0.0 
				1.0048 0.00148763 0.0 
				0.989987 0.00420355 0.0 
				1.00898 0.00188757 0.0 
			</DataArray>
		</CellData>
		<Points>
		<DataArray type="Float64" NumberOfComponents="3" Format="ascii">
			0.5 0 0.0 
			0.46194 0.191342 0.0 
			0.353553 0.353553 0.0 
			0.191342 0.46194 0.0 
			-2.18557e-08 0.5 0.0 
			-0.191342 0.46194 0.0 
			-0.353553 0.353553 0.0 
			-0.46194 0.191342 0.0 
			-0.5 -4.37114e-08 0.0 
			-0.46194 -0.191342 0.0 
			-0.353553 -0.353553 0.0 
			-0.191342 -0.46194 0.0 
			6.55671e-08 -0.5 0.0 
			0.191342 -0.46194 0.0 
			0.353553 -0.353553 0.0 
			0.46194 -0.191342 0.0 
			0.884503 0.175939 0.0 
			0.749846 0.501031 0.0 
			0.501031 0.749846 0.0 
			0.175939 0.884503 0.0 
			-0.175939 0.884503 0.0 
			-0.501031 0.749846 0.0 
			-0.749846 0.501031 0.0 
			-0.884503 0.175939 0.0 
			-0.884503 -0.175939 0.0 
			-0.749846 -0.501031 0.0 
			-0.501031 -0.749846 0.0 
			-0.175939 -0.884503 0.0 
			0.175939 -0.884503 0.0 
			0.501031 -0.749846 0.0 
			0.749846 -0.501031 0.0 
			0.884503 -0.175938 0.0 
			2.20148 0 0.0 
			2.0339 0.842468 0.0 
			1.55668 1.55668 0.0 
			0.842468 2.0339 0.0 
			-9.62295e-08 2.20148 0.0 
			-0.842468 2.0339 0.0 
			-1.55668 1.55668 0.0 
			-2.0339 0.842468 0.0 
			-2.20148 -1.92459e-07 0.0 
			-2.0339 -0.842468 0.0 
			-1.55668 -1.55668 0.0 
			-0.842468 -2.0339 0.0 
			2.88689e-07 -2.20148 0.0 
			0.842468 -2.0339 0.0 
			1.55668 -1.55668 0.0 
			2.0339 -0.842468 0.0 
			6.28184 1.24954 0.0 
			5.32549 3.55838 0.0 
			3.55838 5.32549 0.0 
			1.24954 6.28184 0.0 
			-1.24954 6.28184 0.0 
			-3.55838 5.32549 0.0 
			-5.32549 3.55838 0.0 
			-6.28184 1.24954 0.0 
			-6.28184 -1.24954 0.0 
			-5.32549 -3.55838 0.0 
			-3.55838 -5.32549 0.0 
			-1.24954 -6.28184 0.0 
			1.24954 -6.28184 0.0 
			3.55838 -5.32549 0.0 
			5.32549 -3.55838 0.0 
			6.28184 -1.24953 0.0 
			20.0001 0 0.0 
			18.4777 7.6537 0.0 
			14.1422 14.1422 0.0 
			7.6537 18.4777 0.0 
			-8.74231e-07 20.0001 0.0 
			-7.6537 18.4777 0.0 
			-14.1422 14.1422 0.0 
			-18.4777 7.65369 0.0 
			-20.0001 -1.74846e-06 0.0 
			-18.4777 -7.6537 0.0 
			-14.1422 -14.1422 0.0 
			-7.65369 -18.4777 0.0 
			2.62269e-06 -20.0001 0.0 
			7.6537 -18.4777 0.0 
			14.1422 -14.1422 0.0 
			18.4777 -7.65369 0.0 
		</DataArray>
		</Points>
		<Cells>
			<DataArray type="UInt32" Name="connectivity" Format="ascii">
				0 16 1 
				0 31 16 
				1 17 2 
				1 16 17 
				2 18 3 
				2 17 18 
				3 19 4 
				3 18 19 
				4 20 5 
				4 19 20 
				5 21 6 
				5 20 21 
				6 22 7 
				6 21 22 
				7 23 8 
				7 22 23 
				8 24 9 
				8 23 24 
				9 25 10 
				9 24 25 
				10 26 11 
				10 25 26 
				11 27 12 
				11 26 27 
				12 28 13 
				12 27 28 
				13 29 14 
				13 28 29 
				14 30 15 
				14 29 30 
				15 31 0 
				15 30 31 
				16 32 33 
				16 31 32 
				17 33 34 
				17 16 33 
				18 34 35 
				18 17 34 
				19 35 36 
				19 18 35 
				20 36 37 
				20 19 36 
				21 37 38 
				21 20 37 
				22 38 39 
				22 21 38 
				23 39 40 
				23 22 39 
				24 40 41 
				24 23 40 
				25 41 42 
				25 24 41 
				26 42 43 
				26 25 42 
				27 43 44 
				27 26 43 
				28 44 45 
				28 27 44 
				29 45 46 
				29 28 45 
				30 46 47 
				30 29 46 
				31 47 32 
				31 30 47 
				32 48 33 
				32 63 48 
				33 49 34 
				33 48 49 
				34 50 35 
				34 49 50 
				35 51 36 
				35 50 51 
				36 52 37 
				36 51 52 
				37 53 38 
				37 52 53 
				38 54 39 
				38 53 54 
				39 55 40 
				39 54 55 
				40 56 41 
				40 55 56 
				41 57 42 
				41 56 57 
				42 58 43 
				42 57 58 
				43 59 44 
				43 58 59 
				44 60 45 
				44 59 60 
				45 61 46 
				45 60 61 
				46 62 47 
				46 61 62 
				47 63 32 
				47 62 63 
				48 64 65 
				48 63 64 
				49 65 66 
				49 48 65 
				50 66 67 
				50 49 66 
				51 67 68 
				51 50 67 
				52 68 69 
				52 51 68 
				53 69 70 
				53 52 69 
				54 70 71 
				54 53 70 
				55 71 72 
				55 54 71 
				56 72 73 
				56 55 72 
				57 73 74 
				57 56 73 
				58 74 75 
				58 57 74 
				59 75 76 
				59 58 75 
				60 76 77 
				60 59 76 
				61 77 78 
				61 60 77 
				62 78 79 
				62 61 78 
				63 79 64 
				63 62 79 
			</DataArray>
			<DataArray type="UInt32" Name="offsets" Format="ascii">
				3
				6
				9
				12
				15
				18
				21
				24
				27
				30
				33
				36
				39
				42
				45
				48
				51
				54
				57
				60
				63
				66
				69
				72
				75
				78
				81
				84
				87
				90
				93
				96
				99
				102
				105
				108
				111
				114
				117
				120
				123
				126
				129
				132
				135
				138
				141
				144
				147
				150
				153
				156
				159
				162
				165
				168
				171
				174
				177
				180
				183
				186
				189
				192
				195
				198
				201
				204
				207
				210
				213
				216
				219
				222
				225
				228
				231
				234
				237
				240
				243
				246
				249
				252
				255
				258
				261
				264
				267
				270
				273
				276
				279
				282
				285
				288
				291
				294
				297
				300
				303
				306
				309
				312
				315
				318
				321
				324
				327
				330
				333
				336
				339
				342
				345
				348
				351
				354
				357
				360
				363
				366
				369
				372
				375
				378
				381
				384
			</DataArray>
			<DataArray type="Int32" Name="types" Format="ascii">
				5
				5
				5
				5
				5
				5
				5
				5
				5
				5
				5
				5
				5
				5
				5
				5
				5
				5
				5
				5
				5
				5
				5
				5
				5
				5
				5
				5
				5
				5
				5
				5
				5
				5
				5
				5
				5
				5
				5
				5
				5
				5
				5
				5
				5
				5
				5
				5
				5
				5
				5
				5
				5
				5
				5
				5
				5
				5
				5
				5
				5
				5
				5
				5
				5
				5
				5
				5
				5
				5
				5
				5
				5
				5
				5
				5
				5
				5
				5
				5
				5
				5
				5
				5
				5
				5
				5
				5
				5
				5
				5
				5
				5
				5
				5
				5
				5
				5
				5
				5
				5
				5
				5
				5
				5
				5
				5
				5
				5
				5
				5
				5
				5
				5
				5
				5
				5
				5
				5
				5
				5
				5
				5
				5
				5
				5
				5
				5
			</DataArray>
		</Cells>
	</Piece>
</UnstructuredGrid>
</VTKFile>