<VTKFile type="UnstructuredGrid" version="0.1" byte_order="LittleEndian">
<UnstructuredGrid>
	<Piece NumberOfPoints="4224" NumberOfCells="8192">
		<CellData Scalars="density" Vectors="velocity">
			<DataArray type="Float64" Name="density" Format="ascii">
				1.06583
				1.06538
				1.06501
				1.06491
				1.06358
				1.06372
				1.06144
				1.062
				1.05822
				1.05946
				1.0537
				1.05577
				1.04779
				1.05079
				1.04045
				1.04446
				1.03171
				1.03678
				1.02169
				1.0278
				1.01054
				1.01766
				0.998438
				1.00653
				0.98549
				0.994543
				0.971715
				0.981761
				0.957096
				0.968168
				0.941809
				0.95381
				0.926151
				0.938951
				0.910279
				0.92384
				0.894063
				0.908474
				0.877586
				0.892777
				0.861149
				0.876948
				0.844911
				0.861268
				0.828878
				0.845786
				0.813289
				0.830573
				0.798386
				0.815933
				0.784324
				0.802011
				0.771322
				0.789009
				0.759711
				0.777191
				0.749815
				0.766863
				0.74198
				0.758355
				0.736411
				0.751954
				0.7336
				0.747957
				0.733513
				0.746628
				0.736323
				0.747997
				0.741756
				0.752034
				0.749522
				0.758455
				0.759349
				0.766983
				0.770938
				0.777325
				0.78388
				0.789162
				0.797923
				0.802165
				0.812821
				0.816103
				0.828358
				0.830751
				0.844349
				0.845912
				0.860565
				0.861406
				0.876889
				0.877056
				0.893201
				0.89274
				0.909323
				0.908341
				0.925209
				0.923718
				0.940688
				0.938794
				0.955692
				0.953441
				0.970122
				0.967584
				0.983897
				0.981132
				0.996937
				0.994009
				1.00915
				1.00614
				1.02048
				1.01745
				1.03087
				1.02787
				1.04025
				1.03736
				1.04856
				1.04585
				1.05577
				1.05331
				1.06184
				1.05968
				1.06674
				1.06494
				1.07043
				1.06906
				1.0729
				1.07202
				1.07413
				1.07379
				1.07413
				1.07439
				1.0729
				1.07379
				1.07043
				1.07202
				1.06674
				1.06906
				1.06184
				1.06494
				1.05578
				1.05968
				1.04856
				1.05331
				1.04025
				1.04585
				1.03087
				1.03736
				1.02049
				1.02787
				1.00915
				1.01745
				0.996938
				1.00614
				0.983899
				0.994011
				0.970124
				0.981134
				0.955695
				0.967586
				0.940681
				0.953438
				0.925215
				0.938796
				0.909334
				0.923724
				0.893198
				0.908342
				0.876891
				0.892743
				0.860568
				0.877058
				0.84435
				0.861407
				0.828361
				0.845912
				0.812835
				0.830761
				0.797919
				0.816104
				0.783884
				0.802168
				0.770942
				0.789163
				0.759353
				0.777329
				0.749527
				0.766986
				0.741761
				0.75846
				0.736327
				0.752039
				0.733518
				0.748002
				0.733605
				0.746632
				0.736416
				0.747962
				0.741985
				0.751958
				0.749819
				0.758359
				0.759715
				0.766867
				0.771327
				0.777195
				0.784328
				0.789012
				0.79839
				0.802015
				0.813292
				0.815937
				0.828881
				0.830576
				0.844914
				0.84579
				0.861152
				0.861271
				0.877589
				0.876951
				0.894067
				0.89278
				0.910282
				0.908477
				0.926146
				0.923838
				0.941815
				0.938954
				0.957098
				0.953812
				0.971717
				0.96817
				0.985492
				0.981763
				0.99844
				0.994545
				1.01055
				1.00653
				1.02169
				1.01767
				1.03171
				1.0278
				1.04045
				1.03678
				1.04779
				1.04446
				1.0537
				1.05079
				1.05823
				1.05577
				1.06144
				1.05946
				1.06358
				1.062
				1.06501
				1.06372
				1.06583
				1.06491
				1.06475
				1.06604
				1.06385
				1.06563
				1.06246
				1.06459
				1.06055
				1.06299
				1.05777
				1.06058
				1.05389
				1.05709
				1.04884
				1.0524
				1.0426
				1.04647
				1.03519
				1.0393
				1.02669
				1.03096
				1.01723
				1.02157
				1.00697
				1.01127
				0.99598
				1.0002
				0.984282
				0.988398
				0.971861
				0.975846
				0.958827
				0.962583
				0.94543
				0.948826
				0.931804
				0.934807
				0.917906
				0.920533
				0.903765
				0.905954
				0.889585
				0.891226
				0.87555
				0.876585
				0.861711
				0.862118
				0.848229
				0.847896
				0.835329
				0.83418
				0.823141
				0.821117
				0.811913
				0.808899
				0.801909
				0.797795
				0.793398
				0.788081
				0.78667
				0.780056
				0.781988
				0.774
				0.77959
				0.770202
				0.779608
				0.768863
				0.782049
				0.770064
				0.786775
				0.773738
				0.793545
				0.779663
				0.802084
				0.787573
				0.812102
				0.797178
				0.823316
				0.808172
				0.835474
				0.820271
				0.848362
				0.833242
				0.86179
				0.846874
				0.875584
				0.860978
				0.889592
				0.875383
				0.903677
				0.88994
				0.917717
				0.904518
				0.931608
				0.919001
				0.94524
				0.933278
				0.958529
				0.94725
				0.971383
				0.960822
				0.983728
				0.973913
				0.995491
				0.986443
				1.00661
				0.998341
				1.01701
				1.00954
				1.02665
				1.01997
				1.03547
				1.02958
				1.04342
				1.03832
				1.05047
				1.04614
				1.05658
				1.053
				1.06172
				1.05886
				1.06586
				1.0637
				1.06898
				1.06749
				1.07107
				1.07021
				1.07211
				1.07184
				1.07211
				1.07239
				1.07107
				1.07184
				1.06898
				1.07021
				1.06586
				1.06749
				1.06172
				1.0637
				1.05658
				1.05886
				1.05047
				1.053
				1.04342
				1.04614
				1.03547
				1.03832
				1.02665
				1.02958
				1.01701
				1.01997
				1.00661
				1.00954
				0.995492
				0.998343
				0.98373
				0.986445
				0.971383
				0.973914
				0.958531
				0.960823
				0.945243
				0.947251
				0.93161
				0.933282
				0.91772
				0.919004
				0.903679
				0.904521
				0.889594
				0.889941
				0.875587
				0.875386
				0.861794
				0.86098
				0.848365
				0.846879
				0.835477
				0.833245
				0.823319
				0.820275
				0.812105
				0.808173
				0.802088
				0.797182
				0.793549
				0.787576
				0.786779
				0.779667
				0.782053
				0.773742
				0.779612
				0.770069
				0.779594
				0.768867
				0.781992
				0.770207
				0.786674
				0.774004
				0.793402
				0.78006
				0.801913
				0.788085
				0.811917
				0.797799
				0.823146
				0.808903
				0.835332
				0.821121
				0.848232
				0.834183
				0.861714
				0.847899
				0.875554
				0.862121
				0.889588
				0.876589
				0.903768
				0.891228
				0.917908
				0.905957
				0.931805
				0.920535
				0.945432
				0.934808
				0.958829
				0.948828
				0.971863
				0.962585
				0.984283
				0.975848
				0.995982
				0.9884
				1.00697
				1.0002
				1.01724
				1.01128
				1.02669
				1.02157
				1.03519
				1.03097
				1.0426
				1.0393
				1.04884
				1.04647
				1.05389
				1.0524
				1.05777
				1.05709
				1.06055
				1.06058
				1.06246
				1.06299
				1.06385
				1.06459
				1.06475
				1.06563
				1.06468
				1.06348
				1.06389
				1.06293
				1.06255
				1.06169
				1.06059
				1.06011
				1.05775
				1.05791
				1.0539
				1.0548
				1.04902
				1.05069
				1.04309
				1.04557
				1.03614
				1.03944
				1.02825
				1.03234
				1.01953
				1.02438
				1.01009
				1.01566
				1
				1.00629
				0.989276
				0.996303
				0.977897
				0.985705
				0.965948
				0.974503
				0.953621
				0.962826
				0.941051
				0.950855
				0.928236
				0.938668
				0.915204
				0.926258
				0.902107
				0.9137
				0.889105
				0.901156
				0.876288
				0.888758
				0.863805
				0.876606
				0.851845
				0.864878
				0.840546
				0.85373
				0.830132
				0.843326
				0.82086
				0.833915
				0.812969
				0.825729
				0.806716
				0.818999
				0.802346
				0.81397
				0.800067
				0.810856
				0.799996
				0.809808
				0.802141
				0.810877
				0.806388
				0.814012
				0.812536
				0.819063
				0.820336
				0.825819
				0.829523
				0.83403
				0.839836
				0.843447
				0.851046
				0.853832
				0.862948
				0.864975
				0.875362
				0.876691
				0.888127
				0.888816
				0.901099
				0.901206
				0.91415
				0.913727
				0.927164
				0.926264
				0.940036
				0.938711
				0.952668
				0.950969
				0.964975
				0.96295
				0.976874
				0.974574
				0.988295
				0.985766
				0.99917
				0.996459
				1.00944
				1.00659
				1.01904
				1.01611
				1.02793
				1.02497
				1.03606
				1.03312
				1.04339
				1.04051
				1.04988
				1.04712
				1.05551
				1.05291
				1.06023
				1.05786
				1.06404
				1.06194
				1.06691
				1.06513
				1.06884
				1.06742
				1.0698
				1.0688
				1.0698
				1.06926
				1.06884
				1.0688
				1.06691
				1.06742
				1.06404
				1.06513
				1.06023
				1.06194
				1.05551
				1.05786
				1.04988
				1.05292
				1.04339
				1.04712
				1.03606
				1.04051
				1.02793
				1.03312
				1.01904
				1.02497
				1.00944
				1.01612
				0.99917
				1.00659
				0.988296
				0.99646
				0.976876
				0.985766
				0.964976
				0.974575
				0.95267
				0.962952
				0.940038
				0.950971
				0.927166
				0.938713
				0.914152
				0.926266
				0.901102
				0.913729
				0.88813
				0.901208
				0.875365
				0.888818
				0.862951
				0.876694
				0.851049
				0.864978
				0.839839
				0.853835
				0.829526
				0.84345
				0.820339
				0.834034
				0.812539
				0.825822
				0.806391
				0.819067
				0.802145
				0.814016
				0.8
				0.810881
				0.800071
				0.809812
				0.80235
				0.810859
				0.806719
				0.813974
				0.812973
				0.819002
				0.820864
				0.825732
				0.830136
				0.833918
				0.84055
				0.84333
				0.851848
				0.853733
				0.863808
				0.864881
				0.876291
				0.876609
				0.889108
				0.888761
				0.902109
				0.901158
				0.915206
				0.913703
				0.928238
				0.926259
				0.941053
				0.938669
				0.953622
				0.950856
				0.965949
				0.962827
				0.977899
				0.974505
				0.989277
				0.985706
				1
				0.996305
				1.01009
				1.00629
				1.01953
				1.01566
				1.02825
				1.02438
				1.03614
				1.03234
				1.04309
				1.03944
				1.04902
				1.04557
				1.0539
				1.05069
				1.05775
				1.0548
				1.06059
				1.05791
				1.06255
				1.06011
				1.06389
				1.06169
				1.06468
				1.06293
				1.06104
				1.06266
				1.06003
				1.06222
				1.05862
				1.06112
				1.05682
				1.0595
				1.0543
				1.05716
				1.05092
				1.05398
				1.04669
				1.04995
				1.04162
				1.04507
				1.03576
				1.03934
				1.02915
				1.03282
				1.02186
				1.02556
				1.01397
				1.01764
				1.00555
				1.00913
				0.996612
				1.00007
				0.987145
				0.990446
				0.977183
				0.980273
				0.966836
				0.969635
				0.956234
				0.958679
				0.945442
				0.947498
				0.934494
				0.936119
				0.923471
				0.924605
				0.912496
				0.913077
				0.901693
				0.901663
				0.891192
				0.890481
				0.88115
				0.879689
				0.871705
				0.869433
				0.863037
				0.859873
				0.855365
				0.851227
				0.848882
				0.843714
				0.84378
				0.837536
				0.840257
				0.832909
				0.838466
				0.830025
				0.838479
				0.829015
				0.840287
				0.829916
				0.843807
				0.832681
				0.848904
				0.83719
				0.855397
				0.843268
				0.863083
				0.850702
				0.87175
				0.859266
				0.881199
				0.868745
				0.89125
				0.878942
				0.901742
				0.889679
				0.912536
				0.900804
				0.923505
				0.912179
				0.93454
				0.923681
				0.945538
				0.935201
				0.956409
				0.946637
				0.967071
				0.9579
				0.977445
				0.968906
				0.987464
				0.979579
				0.997065
				0.98985
				1.00619
				0.999657
				1.01479
				1.00895
				1.02282
				1.01766
				1.03025
				1.02577
				1.03702
				1.03321
				1.04312
				1.03997
				1.04852
				1.04601
				1.05319
				1.05129
				1.05711
				1.05581
				1.06027
				1.05953
				1.06265
				1.06244
				1.06424
				1.06453
				1.06504
				1.06578
				1.06504
				1.0662
				1.06424
				1.06578
				1.06265
				1.06453
				1.06027
				1.06244
				1.05711
				1.05953
				1.05319
				1.05581
				1.04852
				1.05129
				1.04312
				1.04601
				1.03702
				1.03997
				1.03025
				1.03322
				1.02283
				1.02577
				1.01479
				1.01766
				1.00619
				1.00895
				0.997066
				0.999658
				0.987466
				0.989851
				0.977447
				0.97958
				0.967072
				0.968907
				0.956411
				0.957902
				0.94554
				0.946639
				0.934542
				0.935203
				0.923507
				0.923683
				0.912538
				0.912181
				0.901745
				0.900806
				0.891252
				0.889682
				0.881201
				0.878944
				0.871753
				0.868748
				0.863086
				0.859269
				0.8554
				0.850704
				0.848907
				0.843271
				0.843811
				0.837193
				0.84029
				0.832684
				0.838482
				0.829919
				0.83847
				0.829019
				0.84026
				0.830029
				0.843783
				0.832912
				0.848885
				0.837539
				0.855368
				0.843717
				0.86304
				0.85123
				0.871708
				0.859875
				0.881153
				0.869436
				0.891195
				0.879691
				0.901696
				0.890484
				0.912499
				0.901665
				0.923473
				0.913079
				0.934496
				0.924607
				0.945444
				0.936121
				0.956236
				0.947499
				0.966838
				0.958681
				0.977185
				0.969637
				0.987147
				0.980274
				0.996614
				0.990448
				1.00555
				1.00007
				1.01397
				1.00913
				1.02186
				1.01764
				1.02915
				1.02556
				1.03576
				1.03282
				1.04163
				1.03934
				1.04669
				1.04507
				1.05092
				1.04995
				1.0543
				1.05398
				1.05682
				1.05716
				1.05862
				1.0595
				1.06003
				1.06112
				1.06104
				1.06222
				1.05932
				1.05785
				1.05852
				1.05726
				1.05719
				1.05601
				1.05528
				1.05449
				1.05265
				1.05244
				1.04931
				1.04965
				1.04528
				1.04616
				1.04059
				1.04199
				1.03524
				1.03717
				1.02927
				1.03174
				1.0227
				1.02573
				1.0156
				1.01919
				1.00799
				1.01216
				0.999901
				1.00467
				0.991335
				0.996729
				0.982315
				0.988352
				0.97292
				0.979573
				0.963258
				0.970481
				0.953411
				0.961176
				0.943432
				0.951726
				0.93339
				0.942188
				0.923385
				0.93264
				0.91353
				0.923184
				0.903956
				0.913937
				0.894807
				0.905034
				0.886215
				0.896614
				0.87834
				0.88881
				0.871373
				0.881786
				0.865493
				0.875725
				0.860865
				0.870785
				0.857654
				0.867114
				0.855995
				0.864851
				0.855952
				0.864095
				0.857518
				0.864871
				0.86062
				0.867137
				0.865142
				0.870802
				0.870936
				0.875741
				0.877831
				0.881806
				0.885644
				0.888833
				0.894196
				0.896653
				0.903318
				0.9051
				0.91286
				0.914022
				0.922686
				0.923278
				0.932679
				0.932747
				0.942734
				0.94232
				0.952757
				0.951902
				0.962665
				0.961411
				0.972381
				0.970769
				0.981835
				0.979907
				0.990964
				0.988761
				0.999708
				0.997275
				1.00802
				1.0054
				1.01585
				1.01308
				1.02315
				1.02028
				1.0299
				1.02696
				1.03605
				1.0331
				1.04159
				1.03866
				1.04649
				1.04361
				1.05073
				1.04795
				1.05428
				1.05165
				1.05714
				1.0547
				1.0593
				1.05708
				1.06075
				1.05879
				1.06147
				1.05982
				1.06147
				1.06016
				1.06075
				1.05982
				1.0593
				1.05879
				1.05715
				1.05708
				1.05428
				1.0547
				1.05073
				1.05165
				1.04649
				1.04795
				1.04159
				1.04361
				1.03605
				1.03866
				1.0299
				1.0331
				1.02315
				1.02696
				1.01585
				1.02028
				1.00802
				1.01308
				0.999709
				1.0054
				0.990965
				0.997276
				0.981837
				0.988762
				0.972383
				0.979908
				0.962666
				0.97077
				0.952758
				0.961412
				0.942735
				0.951904
				0.93268
				0.942322
				0.922688
				0.932748
				0.912862
				0.92328
				0.90332
				0.914024
				0.894198
				0.905102
				0.885646
				0.896655
				0.877834
				0.888835
				0.870939
				0.881808
				0.865145
				0.875744
				0.860623
				0.870805
				0.857521
				0.86714
				0.855955
				0.864874
				0.855998
				0.864098
				0.857657
				0.864854
				0.860868
				0.867117
				0.865496
				0.870788
				0.871376
				0.875728
				0.878342
				0.881789
				0.886217
				0.888812
				0.894809
				0.896617
				0.903959
				0.905036
				0.913532
				0.913939
				0.923387
				0.923187
				0.933392
				0.932642
				0.943434
				0.94219
				0.953413
				0.951728
				0.96326
				0.961177
				0.972921
				0.970483
				0.982316
				0.979575
				0.991336
				0.988353
				0.999902
				0.99673
				1.00799
				1.00467
				1.0156
				1.01216
				1.0227
				1.01919
				1.02927
				1.02574
				1.03525
				1.03174
				1.04059
				1.03717
				1.04528
				1.04199
				1.04931
				1.04616
				1.05265
				1.04966
				1.05528
				1.05244
				1.05719
				1.05449
				1.05852
				1.05601
				1.05932
				1.05726
				1.05332
				1.05515
				1.05234
				1.05475
				1.05105
				1.05375
				1.04942
				1.05224
				1.04718
				1.05011
				1.04431
				1.04737
				1.04091
				1.04408
				1.03699
				1.04026
				1.03258
				1.03591
				1.02769
				1.03104
				1.02233
				1.02566
				1.01652
				1.01979
				1.01029
				1.01346
				1.00367
				1.0067
				0.996683
				0.99953
				0.989337
				0.991971
				0.981677
				0.984052
				0.97377
				0.975838
				0.965697
				0.967412
				0.957531
				0.95885
				0.949339
				0.950218
				0.941196
				0.941587
				0.933188
				0.933044
				0.925421
				0.924689
				0.918022
				0.916647
				0.911117
				0.909049
				0.904827
				0.902022
				0.899291
				0.895706
				0.894654
				0.890257
				0.891042
				0.885822
				0.888559
				0.882523
				0.887288
				0.880473
				0.887287
				0.879753
				0.888562
				0.880396
				0.891064
				0.882371
				0.894695
				0.885598
				0.899339
				0.889967
				0.904873
				0.895347
				0.911167
				0.901602
				0.918089
				0.908591
				0.92551
				0.916169
				0.933301
				0.924198
				0.941346
				0.932548
				0.949535
				0.941104
				0.957777
				0.949761
				0.965988
				0.958429
				0.974097
				0.96703
				0.982042
				0.975493
				0.989766
				0.983757
				0.997219
				0.991763
				1.00435
				0.99946
				1.01113
				1.0068
				1.01751
				1.01374
				1.02345
				1.02025
				1.02894
				1.02629
				1.03395
				1.03183
				1.03844
				1.03685
				1.04242
				1.04132
				1.04585
				1.04524
				1.04873
				1.04857
				1.05105
				1.05132
				1.05279
				1.05347
				1.05396
				1.05501
				1.05454
				1.05593
				1.05454
				1.05624
				1.05396
				1.05593
				1.05279
				1.05501
				1.05105
				1.05347
				1.04873
				1.05132
				1.04585
				1.04857
				1.04242
				1.04524
				1.03844
				1.04132
				1.03395
				1.03685
				1.02894
				1.03183
				1.02345
				1.02629
				1.01751
				1.02025
				1.01113
				1.01374
				1.00435
				1.0068
				0.99722
				0.999461
				0.989767
				0.991764
				0.982043
				0.983758
				0.974098
				0.975495
				0.965989
				0.967031
				0.957778
				0.95843
				0.949537
				0.949762
				0.941347
				0.941105
				0.933303
				0.93255
				0.925511
				0.9242
				0.918091
				0.916171
				0.911169
				0.908593
				0.904875
				0.901605
				0.899342
				0.895349
				0.894697
				0.889969
				0.891066
				0.885601
				0.888565
				0.882373
				0.887289
				0.880398
				0.88729
				0.879756
				0.888561
				0.880476
				0.891045
				0.882526
				0.894656
				0.885824
				0.899293
				0.89026
				0.90483
				0.895708
				0.911119
				0.902025
				0.918024
				0.909051
				0.925423
				0.916649
				0.93319
				0.924691
				0.941198
				0.933046
				0.94934
				0.941589
				0.957532
				0.950219
				0.965699
				0.958852
				0.973772
				0.967414
				0.981678
				0.97584
				0.989338
				0.984053
				0.996684
				0.991972
				1.00367
				0.999531
				1.01029
				1.0067
				1.01652
				1.01346
				1.02233
				1.01979
				1.02769
				1.02566
				1.03258
				1.03104
				1.03699
				1.03591
				1.04091
				1.04026
				1.04431
				1.04408
				1.04718
				1.04737
				1.04942
				1.05011
				1.05105
				1.05224
				1.05234
				1.05375
				1.05332
				1.05475
				1.04993
				1.04829
				1.0493
				1.04777
				1.0482
				1.0467
				1.04656
				1.04544
				1.04437
				1.04371
				1.04172
				1.04144
				1.03864
				1.0387
				1.03514
				1.03555
				1.03121
				1.03201
				1.02685
				1.02807
				1.02205
				1.02373
				1.01684
				1.01899
				1.01124
				1.01387
				1.00529
				1.0084
				0.998998
				1.0026
				0.992403
				0.996502
				0.985534
				0.990134
				0.978441
				0.983529
				0.971187
				0.976739
				0.963844
				0.969827
				0.956484
				0.962868
				0.949182
				0.955937
				0.942012
				0.949105
				0.93506
				0.942444
				0.928438
				0.936043
				0.922265
				0.930017
				0.916655
				0.924479
				0.911722
				0.919532
				0.90759
				0.915286
				0.904375
				0.911855
				0.902164
				0.909335
				0.901017
				0.90779
				0.90098
				0.907263
				0.902064
				0.90778
				0.904238
				0.909337
				0.907424
				0.911889
				0.911517
				0.915348
				0.916405
				0.91961
				0.921974
				0.924564
				0.928114
				0.930106
				0.934715
				0.936134
				0.941669
				0.94255
				0.948869
				0.949253
				0.956214
				0.956145
				0.963616
				0.963136
				0.970994
				0.970141
				0.978282
				0.977091
				0.985419
				0.983923
				0.992355
				0.990584
				0.999044
				0.99703
				1.00545
				1.00322
				1.01153
				1.00912
				1.01725
				1.0147
				1.02258
				1.01992
				1.02751
				1.02477
				1.032
				1.02921
				1.03603
				1.03324
				1.0396
				1.03683
				1.04268
				1.03997
				1.04526
				1.04264
				1.04734
				1.04484
				1.0489
				1.04656
				1.04995
				1.04779
				1.05047
				1.04853
				1.05047
				1.04878
				1.04995
				1.04853
				1.0489
				1.04779
				1.04734
				1.04656
				1.04526
				1.04484
				1.04268
				1.04264
				1.0396
				1.03997
				1.03603
				1.03683
				1.032
				1.03324
				1.02751
				1.02921
				1.02258
				1.02477
				1.01725
				1.01992
				1.01153
				1.0147
				1.00545
				1.00912
				0.999045
				1.00322
				0.992356
				0.997031
				0.98542
				0.990585
				0.978283
				0.983924
				0.970996
				0.977092
				0.963617
				0.970143
				0.956216
				0.963137
				0.94887
				0.956147
				0.941671
				0.949254
				0.934717
				0.942552
				0.928116
				0.936136
				0.921975
				0.930107
				0.916407
				0.924565
				0.911519
				0.919612
				0.907426
				0.91535
				0.904241
				0.911891
				0.902066
				0.909339
				0.900982
				0.907782
				0.901019
				0.907265
				0.902166
				0.907792
				0.904377
				0.909337
				0.907593
				0.911857
				0.911724
				0.915288
				0.916657
				0.919534
				0.922267
				0.92448
				0.928439
				0.930018
				0.935062
				0.936045
				0.942014
				0.942446
				0.949184
				0.949107
				0.956486
				0.955938
				0.963845
				0.962869
				0.971188
				0.969829
				0.978442
				0.97674
				0.985535
				0.98353
				0.992404
				0.990135
				0.998999
				0.996503
				1.00529
				1.0026
				1.01124
				1.0084
				1.01684
				1.01387
				1.02205
				1.01899
				1.02685
				1.02373
				1.03121
				1.02807
				1.03514
				1.03201
				1.03864
				1.03555
				1.04172
				1.0387
				1.04437
				1.04144
				1.04656
				1.04371
				1.0482
				1.04544
				1.0493
				1.0467
				1.04993
				1.04777
				1.04252
				1.04437
				1.04175
				1.0441
				1.04077
				1.04339
				1.03953
				1.04223
				1.0378
				1.04056
				1.03565
				1.03847
				1.03316
				1.03604
				1.03035
				1.03326
				1.0272
				1.03011
				1.02373
				1.02661
				1.01992
				1.02274
				1.01578
				1.01852
				1.01131
				1.01395
				1.00654
				1.00905
				1.00152
				1.00386
				0.996262
				0.998406
				0.990812
				0.992725
				0.985192
				0.986843
				0.979436
				0.980798
				0.973599
				0.974637
				0.967753
				0.968427
				0.961977
				0.962245
				0.956338
				0.956165
				0.950894
				0.950251
				0.945717
				0.944572
				0.940905
				0.939225
				0.936558
				0.934316
				0.93276
				0.92994
				0.929591
				0.926188
				0.927139
				0.923152
				0.925476
				0.920921
				0.92464
				0.919553
				0.924641
				0.919078
				0.925483
				0.919506
				0.927154
				0.920836
				0.929622
				0.923042
				0.932819
				0.92606
				0.936653
				0.929802
				0.941026
				0.934166
				0.945847
				0.939054
				0.951033
				0.944376
				0.956507
				0.950048
				0.962194
				0.955985
				0.968018
				0.962106
				0.973904
				0.968328
				0.979782
				0.974574
				0.985589
				0.980776
				0.991273
				0.986874
				0.996788
				0.992818
				1.0021
				0.998567
				1.00717
				1.00408
				1.01198
				1.00934
				1.01651
				1.0143
				1.02073
				1.01895
				1.02462
				1.02327
				1.02817
				1.02723
				1.03137
				1.03082
				1.03419
				1.03401
				1.03663
				1.03681
				1.03867
				1.03919
				1.04032
				1.04116
				1.04156
				1.04269
				1.04238
				1.04379
				1.0428
				1.04445
				1.0428
				1.04467
				1.04238
				1.04445
				1.04156
				1.04379
				1.04032
				1.04269
				1.03867
				1.04116
				1.03663
				1.03919
				1.03419
				1.03681
				1.03137
				1.03401
				1.02817
				1.03082
				1.02462
				1.02723
				1.02073
				1.02327
				1.01651
				1.01895
				1.01198
				1.0143
				1.00717
				1.00934
				1.0021
				1.00408
				0.996789
				0.998567
				0.991274
				0.992819
				0.98559
				0.986875
				0.979783
				0.980777
				0.973905
				0.974575
				0.968019
				0.968329
				0.962195
				0.962107
				0.956508
				0.955986
				0.951034
				0.950049
				0.945849
				0.944378
				0.941028
				0.939056
				0.936655
				0.934168
				0.932821
				0.929804
				0.929624
				0.926062
				0.927156
				0.923044
				0.925485
				0.920838
				0.924643
				0.919508
				0.924642
				0.91908
				0.925478
				0.919555
				0.927141
				0.920923
				0.929593
				0.923154
				0.932761
				0.92619
				0.936559
				0.929942
				0.940906
				0.934318
				0.945718
				0.939227
				0.950896
				0.944574
				0.95634
				0.950252
				0.961979
				0.956166
				0.967754
				0.962246
				0.973601
				0.968428
				0.979438
				0.974638
				0.985193
				0.980799
				0.990813
				0.986845
				0.996263
				0.992726
				1.00152
				0.998407
				1.00654
				1.00386
				1.01131
				1.00905
				1.01578
				1.01395
				1.01992
				1.01852
				1.02373
				1.02275
				1.02721
				1.02661
				1.03035
				1.03011
				1.03316
				1.03326
				1.03565
				1.03604
				1.0378
				1.03847
				1.03953
				1.04056
				1.04077
				1.04223
				1.04175
				1.04339
				1.04252
				1.0441
				1.0385
				1.03688
				1.03814
				1.03651
				1.03741
				1.03577
				1.03621
				1.0349
				1.03463
				1.03368
				1.03275
				1.03205
				1.03057
				1.03012
				1.02809
				1.02791
				1.02531
				1.02543
				1.02223
				1.02269
				1.01885
				1.01966
				1.01518
				1.01635
				1.01121
				1.01277
				1.00698
				1.00891
				1.00251
				1.00481
				0.997839
				1.0005
				0.993008
				0.996034
				0.98804
				0.991431
				0.982956
				0.986712
				0.977793
				0.9819
				0.972613
				0.977036
				0.967496
				0.972194
				0.962514
				0.967453
				0.957718
				0.962873
				0.953163
				0.9585
				0.948926
				0.954387
				0.9451
				0.950617
				0.941763
				0.947274
				0.938982
				0.944425
				0.936824
				0.942126
				0.935354
				0.94044
				0.934613
				0.939422
				0.934608
				0.939094
				0.93533
				0.93945
				0.936766
				0.940474
				0.938894
				0.94215
				0.941669
				0.944454
				0.945021
				0.947338
				0.948862
				0.950728
				0.953104
				0.954539
				0.957666
				0.958685
				0.96248
				0.963096
				0.967483
				0.96771
				0.972613
				0.972469
				0.977806
				0.977318
				0.983002
				0.982201
				0.988143
				0.98706
				0.993178
				0.991845
				0.998064
				0.99651
				1.00277
				1.00102
				1.00726
				1.00533
				1.01151
				1.00944
				1.01551
				1.01331
				1.01924
				1.01694
				1.02268
				1.0203
				1.02582
				1.02338
				1.02864
				1.02617
				1.03113
				1.02867
				1.03329
				1.03085
				1.0351
				1.03271
				1.03656
				1.03424
				1.03765
				1.03544
				1.03839
				1.0363
				1.03875
				1.03681
				1.03875
				1.03699
				1.03839
				1.03681
				1.03765
				1.0363
				1.03656
				1.03544
				1.0351
				1.03424
				1.03329
				1.03271
				1.03113
				1.03085
				1.02864
				1.02867
				1.02582
				1.02617
				1.02268
				1.02338
				1.01924
				1.0203
				1.01551
				1.01694
				1.01151
				1.01331
				1.00726
				1.00944
				1.00277
				1.00534
				0.998065
				1.00102
				0.993179
				0.99651
				0.988144
				0.991846
				0.983003
				0.987061
				0.977807
				0.982201
				0.972614
				0.977319
				0.967485
				0.97247
				0.962482
				0.967711
				0.957667
				0.963097
				0.953105
				0.958686
				0.948864
				0.95454
				0.945023
				0.950729
				0.941671
				0.947339
				0.938896
				0.944455
				0.936768
				0.942152
				0.935332
				0.940475
				0.93461
				0.939452
				0.934615
				0.939095
				0.935356
				0.939423
				0.936825
				0.940442
				0.938983
				0.942128
				0.941764
				0.944426
				0.945101
				0.947276
				0.948928
				0.950619
				0.953164
				0.954389
				0.957719
				0.958501
				0.962515
				0.962875
				0.967498
				0.967454
				0.972614
				0.972196
				0.977794
				0.977038
				0.982957
				0.981901
				0.988041
				0.986713
				0.993009
				0.991432
				0.997839
				0.996034
				1.00251
				1.0005
				1.00698
				1.00481
				1.01121
				1.00891
				1.01518
				1.01277
				1.01885
				1.01635
				1.02223
				1.01966
				1.02531
				1.02269
				1.02809
				1.02543
				1.03057
				1.02791
				1.03275
				1.03012
				1.03463
				1.03205
				1.03621
				1.03368
				1.03741
				1.0349
				1.03814
				1.03577
				1.0385
				1.03651
				1.03123
				1.03287
				1.03074
				1.03275
				1.03014
				1.03239
				1.02933
				1.03162
				1.02817
				1.03047
				1.0267
				1.02905
				1.025
				1.02738
				1.02307
				1.02545
				1.02092
				1.02327
				1.01854
				1.02084
				1.01594
				1.01818
				1.01311
				1.01527
				1.01004
				1.01212
				1.00675
				1.00872
				1.00326
				1.0051
				0.999615
				1.0013
				0.995865
				0.997353
				0.992031
				0.993301
				0.988123
				0.98916
				0.984153
				0.984941
				0.980157
				0.980673
				0.976203
				0.976413
				0.972368
				0.972239
				0.968706
				0.968219
				0.965251
				0.964393
				0.962041
				0.960802
				0.95914
				0.957507
				0.956619
				0.954582
				0.954532
				0.952092
				0.952914
				0.950086
				0.95181
				0.948609
				0.951258
				0.947707
				0.951278
				0.94741
				0.951853
				0.947717
				0.952955
				0.948605
				0.954563
				0.950052
				0.956655
				0.952036
				0.959199
				0.954526
				0.962141
				0.95747
				0.96541
				0.960797
				0.968932