<VTKFile type="UnstructuredGrid" version="0.1" byte_order="LittleEndian">
<UnstructuredGrid>
	<Piece NumberOfPoints="7760" NumberOfCells="15266">
		<PointData Scalars="density" Vectors="velocity">
			<DataArray type="Float64" Name="density" Format="ascii">
				0.264071
				0.210572
				0.267231
				0.144183
				0.250095
				0.249801
				0.264605
				0.264873
				0.265308
				0.265286
				0.26536
				0.264952
				0.264478
				0.263448
				0.262323
				0.261069
				0.259217
				0.257314
				0.255247
				0.252789
				0.249942
				0.24732
				0.244274
				0.241075
				0.23821
				0.235158
				0.23228
				0.229102
				0.226368
				0.223322
				0.220951
				0.21827
				0.216114
				0.214249
				0.212783
				0.21195
				0.211357
				0.211838
				0.211865
				0.212772
				0.214167
				0.216302
				0.217914
				0.22053
				0.222095
				0.224544
				0.228161
				0.230815
				0.234021
				0.236765
				0.240339
				0.242968
				0.246446
				0.248531
				0.250933
				0.253999
				0.256443
				0.258637
				0.260884
				0.262508
				0.264241
				0.265487
				0.266678
				0.267444
				0.268057
				0.268433
				0.268418
				0.268049
				0.26632
				0.264968
				0.263545
				0.261268
				0.259674
				0.25738
				0.254191
				0.251444
				0.248369
				0.244393
				0.240893
				0.236725
				0.232942
				0.228299
				0.223283
				0.219284
				0.214829
				0.209534
				0.204566
				0.199202
				0.194535
				0.189539
				0.182214
				0.179215
				0.173141
				0.169146
				0.163395
				0.156723
				0.154852
				0.150731
				0.145756
				0.139214
				0.136671
				0.136562
				0.144082
				0.172135
				0.171714
				0.171618
				0.178505
				0.182897
				0.188169
				0.192448
				0.197536
				0.203439
				0.207228
				0.212665
				0.217045
				0.221666
				0.226301
				0.230397
				0.235048
				0.2391
				0.242713
				0.246702
				0.249404
				0.252165
				0.25467
				0.257187
				0.259477
				0.261051
				0.262457
				0.263493
				0.250076
				0.250058
				0.250036
				0.250013
				0.249989
				0.249968
				0.249943
				0.249922
				0.249892
				0.249868
				0.249848
				0.24982
				0.249785
				0.249766
				0.249735
				0.249692
				0.249681
				0.24965
				0.249611
				0.249599
				0.249578
				0.249523
				0.249474
				0.249488
				0.249463
				0.249427
				0.249371
				0.249383
				0.249387
				0.249322
				0.249296
				0.249338
				0.249319
				0.249305
				0.249315
				0.2493
				0.249315
				0.249374
				0.249333
				0.249352
				0.249424
				0.249441
				0.249496
				0.249556
				0.249545
				0.249585
				0.249619
				0.249614
				0.249649
				0.249702
				0.249745
				0.24974
				0.249778
				0.249798
				0.249839
				0.249862
				0.24988
				0.249906
				0.249921
				0.249949
				0.249929
				0.249842
				0.249838
				0.249951
				0.250075
				0.250125
				0.250132
				0.250162
				0.250177
				0.250222
				0.25021
				0.250237
				0.250267
				0.250305
				0.250305
				0.25033
				0.25036
				0.250341
				0.250387
				0.250396
				0.25044
				0.250471
				0.250498
				0.25052
				0.250518
				0.250573
				0.250572
				0.250563
				0.250598
				0.250617
				0.250587
				0.250589
				0.250573
				0.250576
				0.250603
				0.250573
				0.250557
				0.250556
				0.250547
				0.250525
				0.250482
				0.250524
				0.250478
				0.250463
				0.25045
				0.250449
				0.250424
				0.250391
				0.250415
				0.250388
				0.250347
				0.250343
				0.250322
				0.250301
				0.250283
				0.250281
				0.250243
				0.250231
				0.250214
				0.250197
				0.250169
				0.250167
				0.250141
				0.250116
				0.250126
				0.250529
				0.249407
				0.249254
				0.25056
				0.250233
				0.249733
				0.249741
				0.248493
				0.250662
				0.250789
				0.250781
				0.250467
				0.248396
				0.250728
				0.24835
				0.251337
				0.25081
				0.251519
				0.245259
				0.252643
				0.250297
				0.251228
				0.250007
				0.247933
				0.251567
				0.252715
				0.24432
				0.253784
				0.255052
				0.24886
				0.250131
				0.254782
				0.250264
				0.2409
				0.246771
				0.25175
				0.233814
				0.249814
				0.249237
				0.250343
				0.250569
				0.250422
				0.251661
				0.258167
				0.259612
				0.257798
				0.257935
				0.250833
				0.234975
				0.249886
				0.243421
				0.24001
				0.250243
				0.250774
				0.249895
				0.249635
				0.25377
				0.250786
				0.249118
				0.218159
				0.250463
				0.243123
				0.217094
				0.248884
				0.250009
				0.250221
				0.251021
				0.250411
				0.251176
				0.250489
				0.249612
				0.250454
				0.249395
				0.249521
				0.249481
				0.25036
				0.250338
				0.256295
				0.250166
				0.249688
				0.249994
				0.249093
				0.245174
				0.247979
				0.249386
				0.24974
				0.249933
				0.250653
				0.250521
				0.249927
				0.262942
				0.241085
				0.243241
				0.250654
				0.25095
				0.256987
				0.248976
				0.252333
				0.250647
				0.235638
				0.256204
				0.261479
				0.250577
				0.252236
				0.247842
				0.223097
				0.249914
				0.250907
				0.250257
				0.25103
				0.26129
				0.22468
				0.250652
				0.250489
				0.250108
				0.251967
				0.250619
				0.250541
				0.250939
				0.249252
				0.234807
				0.247649
				0.250956
				0.25033
				0.25086
				0.249415
				0.249645
				0.248902
				0.250213
				0.249764
				0.261891
				0.249977
				0.249332
				0.249932
				0.250226
				0.201206
				0.249841
				0.249337
				0.250144
				0.261239
				0.250425
				0.251418
				0.250849
				0.250132
				0.250368
				0.248627
				0.245716
				0.250557
				0.248981
				0.255077
				0.188365
				0.25167
				0.250568
				0.25052
				0.251657
				0.249208
				0.249673
				0.248895
				0.233555
				0.2505
				0.249318
				0.250484
				0.261805
				0.254237
				0.250521
				0.250346
				0.251413
				0.251456
				0.248222
				0.250609
				0.198752
				0.249467
				0.246544
				0.250428
				0.252142
				0.265057
				0.250442
				0.253217
				0.242393
				0.250245
				0.249548
				0.250664
				0.250094
				0.248046
				0.251152
				0.245453
				0.250574
				0.250663
				0.249614
				0.250016
				0.250683
				0.249643
				0.247239
				0.252201
				0.237723
				0.249952
				0.256133
				0.250679
				0.249436
				0.248548
				0.251063
				0.25079
				0.24883
				0.237746
				0.249785
				0.249357
				0.25065
				0.250491
				0.25042
				0.237931
				0.249941
				0.259054
				0.253113
				0.247937
				0.26605
				0.251048
				0.250801
				0.250146
				0.249863
				0.250504
				0.250743
				0.264332
				0.255144
				0.250448
				0.254648
				0.249327
				0.250107
				0.249375
				0.22137
				0.249766
				0.250263
				0.2533
				0.250375
				0.252297
				0.25052
				0.248508
				0.247885
				0.249895
				0.250128
				0.249379
				0.250653
				0.250331
				0.250082
				0.247096
				0.250923
				0.248549
				0.249583
				0.249087
				0.249544
				0.249482
				0.250485
				0.249173
				0.250822
				0.249928
				0.248867
				0.207558
				0.25025
				0.25032
				0.257587
				0.245601
				0.259535
				0.251265
				0.250248
				0.25025
				0.22756
				0.250431
				0.23092
				0.250344
				0.251227
				0.249142
				0.249471
				0.250066
				0.249746
				0.249937
				0.25476
				0.2509
				0.25079
				0.250873
				0.258008
				0.243292
				0.244381
				0.249768
				0.249247
				0.243762
				0.249829
				0.250475
				0.250444
				0.234896
				0.249398
				0.250168
				0.250239
				0.248167
				0.249491
				0.250212
				0.250618
				0.250702
				0.249428
				0.250022
				0.251103
				0.251069
				0.250729
				0.247068
				0.249101
				0.250286
				0.207171
				0.245965
				0.250612
				0.2592
				0.250805
				0.248299
				0.250187
				0.251234
				0.250392
				0.249771
				0.249523
				0.252658
				0.250729
				0.240377
				0.240874
				0.250527
				0.249781
				0.24827
				0.24961
				0.248735
				0.250506
				0.237785
				0.24954
				0.2505
				0.249125
				0.254515
				0.249154
				0.250321
				0.250845
				0.250738
				0.251688
				0.250594
				0.251666
				0.255652
				0.264745
				0.250861
				0.249972
				0.241891
				0.254926
				0.250852
				0.250408
				0.25086
				0.249564
				0.253362
				0.264332
				0.25017
				0.22512
				0.26436
				0.252051
				0.253007
				0.250454
				0.241045
				0.251158
				0.250568
				0.250747
				0.251193
				0.250455
				0.250222
				0.250356
				0.248045
				0.248818
				0.250405
				0.249734
				0.25066
				0.25062
				0.250247
				0.193362
				0.248284
				0.251806
				0.249443
				0.248781
				0.246688
				0.248941
				0.249293
				0.249872
				0.249718
				0.25019
				0.261194
				0.217728
				0.249952
				0.257561
				0.244608
				0.251767
				0.254061
				0.250467
				0.251966
				0.250028
				0.249952
				0.249561
				0.243032
				0.250423
				0.248194
				0.249705
				0.249677
				0.249897
				0.249436
				0.228365
				0.250324
				0.249773
				0.250911
				0.250006
				0.263007
				0.250328
				0.252133
				0.251085
				0.250869
				0.250578
				0.249024
				0.175778
				0.250149
				0.250064
				0.250576
				0.250136
				0.25063
				0.248915
				0.250423
				0.250664
				0.25001
				0.249445
				0.250828
				0.253771
				0.243427
				0.250295
				0.24806
				0.259659
				0.250768
				0.24954
				0.26037
				0.249817
				0.246785
				0.249354
				0.250878
				0.250846
				0.249169
				0.250378
				0.250459
				0.249139
				0.250601
				0.249558
				0.24193
				0.250447
				0.240626
				0.25044
				0.250916
				0.253051
				0.251703
				0.248993
				0.250726
				0.253216
				0.250558
				0.250275
				0.250318
				0.249188
				0.250396
				0.250104
				0.251563
				0.250846
				0.250751
				0.251633
				0.249511
				0.176966
				0.227408
				0.25085
				0.251574
				0.263641
				0.249473
				0.246575
				0.250468
				0.252438
				0.227595
				0.250695
				0.250962
				0.262283
				0.25053
				0.249542
				0.256673
				0.249223
				0.249839
				0.248114
				0.249651
				0.251328
				0.246577
				0.250421
				0.250407
				0.239142
				0.250853
				0.250377
				0.250414
				0.230368
				0.24944
				0.251648
				0.248357
				0.248727
				0.250284
				0.250034
				0.267297
				0.254202
				0.255285
				0.247568
				0.249275
				0.24931
				0.2334
				0.249546
				0.244667
				0.2493
				0.244168
				0.249821
				0.247153
				0.246953
				0.249944
				0.249961
				0.251201
				0.251001
				0.249793
				0.25599
				0.248612
				0.250053
				0.251868
				0.250525
				0.250718
				0.253643
				0.249898
				0.249491
				0.250513
				0.250591
				0.249207
				0.249329
				0.250509
				0.249976
				0.250176
				0.250568
				0.251016
				0.250492
				0.253554
				0.239053
				0.250741
				0.248245
				0.250469
				0.249069
				0.24891
				0.247801
				0.247611
				0.250305
				0.249457
				0.250021
				0.225069
				0.250453
				0.256918
				0.24955
				0.249394
				0.250225
				0.25061
				0.258606
				0.229616
				0.252206
				0.249889
				0.250831
				0.250818
				0.254025
				0.253022
				0.250499
				0.250898
				0.257747
				0.24999
				0.24881
				0.250875
				0.24822
				0.250843
				0.253554
				0.248972
				0.250019
				0.250488
				0.186958
				0.249631
				0.249622
				0.250788
				0.251234
				0.20969
				0.250282
				0.250998
				0.24999
				0.249324
				0.250392
				0.250569
				0.251936
				0.246027
				0.24993
				0.249487
				0.250542
				0.250455
				0.260097
				0.250376
				0.250467
				0.250398
				0.24991
				0.25055
				0.25125
				0.248844
				0.252581
				0.250426
				0.250527
				0.249255
				0.249034
				0.249872
				0.249367
				0.245267
				0.249656
				0.250198
				0.249914
				0.246204
				0.250115
				0.250793
				0.250741
				0.257676
				0.250571
				0.249759
				0.212004
				0.251755
				0.250074
				0.256754
				0.249741
				0.249693
				0.250912
				0.249606
				0.250206
				0.253464
				0.254507
				0.25047
				0.234086
				0.263461
				0.248681
				0.234363
				0.250809
				0.248303
				0.251369
				0.250316
				0.250484
				0.250545
				0.249513
				0.251492
				0.250734
				0.245453
				0.249448
				0.250309
				0.249645
				0.249839
				0.250511
				0.250657
				0.250519
				0.231604
				0.250735
				0.25245
				0.249495
				0.248657
				0.239134
				0.249922
				0.249339
				0.249233
				0.249905
				0.259159
				0.251008
				0.248616
				0.25041
				0.248698
				0.266556
				0.247101
				0.250316
				0.25038
				0.250118
				0.250569
				0.248997
				0.24991
				0.25021
				0.249434
				0.251841
				0.251204
				0.250018
				0.250425
				0.250261
				0.266548
				0.249297
				0.250086
				0.250179
				0.249026
				0.22341
				0.249662
				0.249612
				0.24907
				0.23449
				0.243706
				0.25069
				0.250855
				0.244484
				0.261606
				0.250124
				0.257108
				0.264821
				0.248533
				0.250689
				0.25178
				0.25065
				0.25357
				0.245704
				0.249838
				0.250178
				0.249984
				0.244159
				0.246893
				0.249941
				0.251161
				0.249704
				0.250039
				0.252509
				0.25038
				0.250676
				0.239116
				0.249713
				0.240234
				0.251085
				0.22669
				0.250372
				0.250552
				0.247895
				0.250611
				0.253219
				0.250191
				0.215673
				0.250485
				0.252269
				0.249189
				0.24995
				0.249583
				0.249312
				0.250814
				0.248602
				0.250684
				0.259262
				0.250422
				0.250657
				0.250482
				0.250454
				0.221698
				0.250482
				0.240583
				0.235589
				0.250168
				0.250225
				0.246236
				0.255326
				0.262187
				0.249367
				0.249831
				0.253316
				0.252709
				0.249899
				0.220713
				0.249711
				0.245879
				0.24857
				0.24857
				0.251342
				0.221053
				0.204111
				0.24955
				0.262723
				0.249473
				0.249674
				0.249202
				0.243817
				0.250093
				0.252579
				0.251366
				0.250836
				0.250789
				0.249461
				0.249542
				0.251166
				0.251663
				0.249213
				0.251133
				0.250533
				0.25101
				0.249941
				0.250736
				0.159689
				0.250847
				0.246783
				0.25088
				0.25078
				0.249689
				0.250782
				0.254295
				0.249675
				0.250135
				0.259676
				0.249434
				0.194633
				0.249447
				0.250606
				0.250281
				0.250396
				0.250842
				0.250371
				0.25022
				0.246469
				0.250445
				0.251049
				0.230381
				0.251248
				0.249728
				0.250725
				0.247437
				0.250111
				0.2495
				0.250424
				0.249776
				0.249963
				0.249882
				0.249856
				0.256883
				0.249326
				0.251538
				0.250593
				0.260616
				0.250006
				0.250597
				0.250746
				0.232377
				0.247654
				0.252572
				0.260883
				0.250951
				0.250988
				0.250191
				0.249824
				0.214949
				0.251739
				0.250087
				0.249399
				0.250417
				0.246417
				0.250101
				0.250605
				0.250804
				0.241978
				0.264609
				0.190482
				0.170551
				0.249498
				0.250527
				0.250247
				0.254284
				0.250146
				0.24926
				0.250704
				0.228078
				0.205439
				0.250368
				0.245624
				0.250235
				0.248531
				0.252211
				0.25009
				0.257272
				0.250302
				0.250267
				0.25557
				0.253722
				0.241378
				0.250349
				0.250226
				0.249424
				0.24893
				0.250651
				0.24982
				0.243281
				0.234422
				0.258124
				0.250861
				0.248076
				0.250238
				0.257339
				0.249439
				0.250508
				0.264925
				0.250454
				0.249544
				0.260771
				0.249516
				0.250493
				0.228769
				0.250472
				0.249429
				0.239379
				0.251964
				0.24896
				0.250219
				0.253681
				0.242232
				0.256508
				0.250995
				0.250335
				0.251077
				0.21885
				0.256704
				0.250475
				0.250056
				0.250293
				0.256335
				0.250452
				0.247312
				0.250353
				0.249524
				0.255651
				0.250675
				0.253406
				0.244857
				0.245611
				0.249466
				0.249475
				0.24998
				0.250887
				0.250849
				0.246246
				0.250464
				0.233252
				0.249942
				0.252729
				0.25044
				0.250098
				0.250506
				0.234793
				0.250407
				0.254377
				0.250478
				0.244182
				0.258116
				0.249443
				0.24962
				0.252327
				0.249489
				0.250843
				0.250387
				0.252858
				0.251126
				0.256059
				0.250485
				0.250937
				0.250774
				0.259583
				0.262749
				0.252553
				0.250068
				0.250287
				0.250596
				0.250074
				0.248664
				0.250341
				0.249939
				0.248715
				0.249352
				0.249264
				0.249167
				0.249546
				0.249378
				0.249712
				0.25052
				0.250942
				0.250845
				0.250322
				0.249951
				0.249985
				0.238113
				0.259578
				0.251056
				0.250705
				0.250744
				0.250111
				0.250766
				0.250758
				0.250502
				0.249384
				0.250278
				0.24695
				0.249499
				0.250962
				0.249859
				0.249771
				0.250039
				0.250249
				0.250621
				0.249726
				0.249416
				0.248863
				0.238155
				0.250167
				0.250353
				0.250593
				0.249665
				0.234742
				0.239539
				0.250422
				0.250581
				0.252179
				0.250285
				0.251605
				0.250875
				0.249593
				0.249089
				0.25839
				0.250223
				0.255015
				0.248852
				0.244074
				0.250897
				0.249412
				0.25012
				0.248283
				0.248386
				0.256271
				0.254607
				0.24946
				0.250652
				0.247271
				0.24969
				0.250155
				0.250574
				0.250479
				0.250508
				0.251471
				0.249438
				0.24995
				0.250465
				0.248137
				0.249964
				0.250437
				0.242467
				0.248773
				0.243561
				0.24979
				0.25034
				0.250315
				0.251126
				0.249448
				0.251946
				0.246898
				0.201304
				0.2558
				0.247195
				0.244332
				0.248567
				0.250696
				0.251077
				0.25022
				0.249905
				0.248863
				0.250357
				0.250459
				0.249594
				0.263701
				0.250708
				0.259715
				0.250792
				0.249604
				0.249615
				0.249475
				0.250948
				0.249803
				0.25077
				0.249418
				0.25091
				0.250138
				0.252127
				0.248292
				0.250756
				0.251026
				0.25029
				0.251571
				0.24923
				0.249954
				0.250388
				0.252284
				0.250509
				0.251608
				0.249825
				0.253561
				0.24976
				0.249648
				0.248747
				0.250335
				0.25307
				0.249868
				0.250135
				0.225627
				0.249674
				0.24946
				0.250113
				0.249007
				0.264121
				0.249144
				0.247977
				0.249629
				0.250278
				0.261481
				0.223371
				0.250712
				0.262747
				0.25031
				0.248469
				0.250222
				0.252453
				0.250927
				0.232555
				0.249067
				0.250052
				0.235041
				0.249895
				0.249058
				0.249429
				0.249797
				0.249111
				0.249876
				0.258405
				0.228274
				0.253321
				0.249113
				0.247065
				0.24495
				0.248697
				0.249862
				0.247157
				0.250344
				0.248338
				0.250644
				0.250291
				0.249565
				0.263951
				0.252132
				0.250008
				0.237781
				0.250613
				0.245485
				0.249827
				0.250413
				0.250414
				0.251081
				0.25196
				0.234596
				0.250047
				0.256233
				0.249154
				0.249436
				0.250135
				0.250943
				0.252871
				0.240168
				0.250244
				0.251384
				0.245975
				0.193276
				0.248533
				0.250872
				0.251278
				0.249323
				0.250488
				0.247764
				0.245723
				0.250839
				0.256038
				0.247255
				0.250383
				0.250379
				0.240386
				0.249511
				0.181854
				0.250461
				0.243319
				0.250569
				0.250667
				0.253112
				0.249931
				0.250586
				0.250604
				0.249928
				0.2506
				0.249552
				0.250365
				0.250559
				0.249777
				0.250428
				0.249623
				0.251094
				0.250441
				0.249852
				0.242729
				0.249928
				0.250146
				0.251511
				0.250482
				0.218169
				0.250655
				0.249521
				0.25055
				0.22964
				0.24988
				0.205879
				0.253047
				0.250578
				0.250543
				0.250396
				0.250424
				0.250197
				0.249484
				0.251114
				0.249806
				0.254505
				0.265481
				0.24818
				0.250802
				0.250188
				0.251036
				0.230143
				0.251742
				0.248068
				0.249828
				0.250432
				0.250502
				0.250181
				0.250169
				0.248412
				0.248813
				0.247679
				0.249977
				0.24934
				0.260858
				0.249936
				0.250022
				0.251773
				0.250286
				0.250529
				0.243801
				0.251106
				0.254139
				0.238107
				0.249149
				0.249198
				0.253592
				0.250429
				0.249392
				0.250276
				0.24591
				0.251195
				0.258362
				0.239981
				0.250865
				0.251986
				0.250692
				0.251212
				0.261557
				0.25339
				0.256791
				0.247802
				0.250378
				0.250353
				0.25108
				0.249356
				0.248813
				0.243433
				0.252158
				0.249827
				0.251568
				0.249937
				0.250159
				0.250044
				0.249687
				0.261426
				0.250397
				0.249598
				0.24292
				0.250594
				0.250413
				0.250578
				0.241853
				0.250648
				0.24926
				0.256297
				0.245213
				0.250867
				0.250608
				0.249991
				0.249826
				0.249549
				0.250766
				0.249902
				0.246603
				0.250877
				0.218568
				0.249025
				0.239353
				0.250318
				0.245248
				0.250708
				0.250769
				0.251889
				0.250834
				0.256402
				0.252307
				0.250627
				0.249175
				0.250671
				0.250258
				0.247799
				0.247981
				0.248858
				0.25116
				0.249567
				0.250936
				0.228805
				0.255402
				0.251597
				0.239236
				0.250412
				0.234545
				0.250508
				0.251855
				0.250782
				0.250437
				0.249056
				0.250052
				0.249942
				0.250526
				0.249814
				0.249772
				0.249778
				0.248783
				0.250471
				0.249497
				0.249744
				0.251481
				0.250614
				0.252126
				0.25127
				0.238716
				0.259235
				0.251881
				0.249405
				0.249928
				0.248158
				0.251216
				0.249265
				0.262054
				0.249644
				0.248374
				0.155229
				0.250722
				0.249374
				0.255174
				0.247621
				0.25033
				0.24948
				0.251559
				0.250282
				0.209979
				0.249452
				0.247959
				0.249441
				0.249268
				0.249102
				0.251896
				0.249262
				0.249955
				0.249649
				0.247979
				0.250105
				0.241896
				0.249539
				0.249178
				0.249202
				0.237758
				0.250691
				0.249812
				0.249324
				0.250419
				0.249372
				0.250162
				0.253685
				0.250596
				0.249931
				0.250922
				0.250023
				0.24935
				0.267676
				0.250466
				0.250138
				0.250627
				0.250609
				0.250977
				0.249747
				0.250789
				0.253354
				0.267693
				0.2507
				0.250652
				0.249694
				0.238278
				0.250547
				0.249724
				0.249426
				0.250184
				0.248978
				0.250701
				0.250161
				0.242425
				0.250847
				0.252544
				0.2499
				0.249296
				0.250021
				0.249933
				0.250189
				0.250619
				0.24816
				0.248917
				0.249564
				0.24976
				0.248869
				0.260681
				0.250417
				0.241323
				0.250577
				0.249869
				0.247184
				0.250706
				0.250468
				0.250548
				0.250562
				0.250546
				0.248949
				0.250943
				0.249279
				0.249471
				0.250468
				0.247596
				0.24994
				0.162202
				0.254377
				0.211945
				0.265973
				0.250597
				0.248994
				0.250593
				0.250173
				0.250308
				0.228624
				0.249596
				0.250679
				0.250459
				0.263884
				0.248881
				0.249951
				0.245175
				0.251315
				0.252302
				0.250306
				0.250887
				0.250395
				0.252087
				0.250278
				0.25113
				0.250303
				0.225234
				0.248393
				0.248863
				0.250201
				0.250247
				0.250174
				0.216015
				0.246791
				0.250011
				0.250636
				0.25336
				0.250914
				0.250484
				0.250399
				0.250303
				0.263159
				0.251967
				0.249916
				0.254349
				0.249035
				0.264492
				0.247872
				0.263822
				0.251476
				0.254026
				0.226994
				0.250798
				0.250527
				0.249714
				0.25423
				0.231381
				0.248466
				0.250788
				0.248076
				0.246196
				0.250498
				0.254825
				0.250337
				0.250348
				0.250084
				0.249456
				0.218409
				0.25992
				0.250063
				0.249851
				0.250387
				0.247244
				0.249859
				0.249575
				0.255426
				0.258019
				0.249797
				0.237488
				0.250671
				0.249503
				0.25573
				0.249961
				0.249219
				0.251502
				0.250534
				0.244732
				0.249665
				0.198219
				0.251126
				0.261757
				0.250043
				0.250443
				0.250194
				0.250064
				0.249789
				0.249118
				0.250436
				0.262632
				0.259406
				0.246649
				0.250566
				0.250774
				0.250236
				0.240419
				0.26186
				0.242443
				0.250234
				0.249605
				0.249683
				0.250789
				0.250844
				0.250188
				0.232514
				0.221758
				0.250289
				0.250396
				0.242208
				0.249435
				0.252463
				0.252855
				0.265501
				0.250459
				0.250305
				0.251155
				0.249206
				0.255495
				0.24961
				0.247009
				0.263112
				0.251722
				0.250232
				0.250267
				0.251029
				0.249065
				0.245595
				0.248396
				0.252658
				0.253276
				0.249719
				0.250519
				0.25026
				0.222985
				0.250859
				0.250796
				0.247848
				0.24857
				0.250543
				0.249698
				0.249611
				0.25111
				0.250514
				0.250587
				0.253707
				0.250663
				0.249875
				0.249547
				0.256698
				0.251988
				0.24934
				0.250473
				0.250809
				0.252781
				0.250114
				0.250386
				0.250299
				0.250659
				0.252103
				0.250152
				0.250956
				0.251031
				0.249603
				0.24901
				0.24996
				0.249867
				0.251021
				0.250883
				0.250321
				0.263552
				0.252561
				0.251316
				0.25661
				0.25129
				0.250186
				0.249751
				0.250233
				0.250761
				0.247526
				0.235971
				0.250811
				0.249674
				0.250445
				0.25775
				0.246815
				0.249881
				0.249144
				0.250832
				0.263363
				0.25002
				0.249852
				0.249209
				0.253156
				0.249403
				0.250846
				0.250894
				0.249282
				0.250791
				0.250836
				0.25135
				0.250164
				0.261501
				0.234438
				0.249896
				0.250023
				0.246918
				0.250594
				0.250143
				0.251599
				0.251551
				0.256557
				0.250443
				0.250653
				0.250507
				0.226025
				0.254055
				0.251476
				0.249567
				0.249152
				0.250534
				0.250081
				0.237497
				0.256518
				0.246924
				0.249715
				0.250461
				0.249577
				0.253368
				0.249483
				0.264742
				0.248362
				0.249359
				0.25268
				0.249058
				0.263055
				0.250432
				0.25091
				0.250816
				0.249786
				0.249276
				0.251764
				0.24955
				0.243008
				0.251104
				0.249948
				0.250492
				0.250293
				0.259964
				0.259645
				0.24838
				0.241454
				0.251038
				0.250555
				0.243388
				0.24975
				0.249664
				0.250672
				0.250487
				0.177765
				0.259008
				0.250576
				0.250841
				0.248063
				0.241366
				0.249974
				0.250352
				0.250144
				0.250265
				0.247753
				0.253133
				0.249462
				0.249911
				0.249264
				0.250745
				0.250563
				0.251703
				0.250838
				0.256173
				0.249419
				0.250618
				0.250734
				0.251007
				0.263012
				0.177499
				0.252068
				0.250116
				0.183346
				0.25053
				0.254714
				0.256998
				0.250137
				0.250452
				0.247585
				0.236877
				0.24815
				0.251927
				0.250655
				0.250493
				0.25089
				0.249361
				0.250409
				0.250464
				0.250911
				0.243684
				0.248762
				0.248896
				0.250614
				0.249396
				0.24151
				0.247346
				0.250109
				0.250484
				0.257908
				0.231807
				0.250529
				0.250046
				0.247381
				0.236907
				0.248682
				0.250207
				0.2499
				0.248387
				0.249533
				0.250013
				0.249557
				0.26508
				0.250768
				0.255137
				0.2474
				0.250635
				0.24738
				0.250462
				0.2506
				0.250966
				0.250446
				0.25052
				0.250487
				0.249483
				0.250473
				0.247355
				0.249292
				0.250451
				0.253124
				0.249311
				0.194052
				0.250483
				0.201618
				0.214987
				0.249327
				0.258945
				0.251501
				0.25311
				0.250681
				0.252561
				0.242076
				0.250829
				0.246194
				0.244692
				0.252689
				0.239255
				0.250814
				0.250451
				0.250419
				0.250669
				0.249806
				0.25044
				0.248269
				0.250541
				0.250626
				0.249605
				0.250262
				0.250351
				0.253259
				0.249128
				0.24864
				0.24996
				0.265078
				0.250129
				0.250495
				0.252009
				0.261208
				0.266499
				0.24972
				0.256565
				0.249991
				0.257079
				0.246466
				0.250384
				0.249358
				0.247871
				0.250228
				0.250276
				0.249667
				0.250397
				0.250039
				0.25055
				0.249544
				0.250451
				0.252601
				0.250885
				0.249466
				0.250619
				0.218823
				0.250732
				0.254489
				0.248579
				0.249655
				0.249477
				0.250504
				0.250247
				0.250024
				0.24956
				0.250217
				0.250413
				0.255831
				0.249236
				0.250356
				0.249885
				0.250319
				0.251326
				0.254828
				0.250507
				0.245681
				0.249364
				0.250461
				0.253566
				0.250638
				0.248885
				0.250938
				0.250005
				0.254077
				0.250564
				0.246108
				0.251196
				0.251473
				0.248689
				0.250345
				0.250851
				0.249168
				0.249731
				0.250898
				0.2547
				0.250811
				0.250013
				0.192925
				0.249306
				0.249551
				0.24949
				0.247665
				0.249594
				0.253457
				0.192798
				0.249831
				0.250081
				0.249729
				0.238246
				0.24985
				0.253505
				0.249853
				0.249422
				0.250236
				0.250321
				0.24924
				0.249981
				0.25653
				0.249429
				0.251261
				0.250833
				0.250106
				0.248853
				0.250228
				0.23937
				0.248476
				0.249728
				0.257874
				0.251426
				0.25051
				0.159299
				0.251074
				0.250917
				0.250489
				0.254591
				0.250374
				0.24984
				0.250494
				0.243616
				0.249984
				0.256019
				0.24554
				0.250615
				0.250466
				0.250521
				0.250328
				0.248377
				0.250494
				0.250025
				0.240099
				0.25065
				0.250696
				0.249385
				0.250235
				0.249893
				0.249309
				0.250844
				0.249923
				0.249632
				0.250913
				0.249374
				0.247319
				0.249597
				0.249505
				0.25099
				0.250825
				0.250141
				0.250522
				0.25747
				0.250136
				0.250054
				0.250035
				0.252242
				0.250527
				0.248694
				0.250622
				0.224867
				0.242594
				0.254999
				0.250161
				0.204541
				0.25025
				0.258322
				0.249736
				0.250331
				0.250153
				0.24994
				0.249998
				0.246722
				0.221022
				0.249755
				0.231471
				0.256981
				0.231364
				0.24875
				0.250361
				0.24964
				0.249938
				0.249952
				0.25036
				0.250306
				0.248959
				0.250588
				0.257979
				0.25053
				0.230727
				0.24934
				0.250456
				0.249579
				0.249115
				0.249455
				0.250345
				0.250658
				0.252354
				0.248831
				0.250246
				0.211101
				0.24743
				0.250322
				0.249713
				0.250346
				0.250373
				0.249345
				0.249695
				0.203839
				0.255053
				0.250449
				0.25047
				0.250498
				0.249328
				0.184342
				0.249464
				0.24891
				0.249538
				0.254309
				0.249344
				0.248417
				0.250798
				0.250471
				0.235547
				0.24751
				0.249499
				0.250604
				0.242894
				0.248962
				0.251954
				0.250506
				0.251931