<VTKFile type="UnstructuredGrid" version="0.1" byte_order="LittleEndian">
<UnstructuredGrid>
	<Piece NumberOfPoints="288" NumberOfCells="512">
		<CellData Scalars="density" Vectors="velocity">
			<DataArray type="Float64" Name="density" Format="ascii">
				1.03122
				1.03223
				1.02555
				1.02894
				1.00563
				1.02095
				0.96998
				1.00192
				0.920707
				0.969041
				0.864661
				0.925566
				0.812787
				0.880116
				0.779864
				0.844904
				0.780371
				0.832669
				0.813532
				0.847809
				0.865405
				0.882184
				0.923162
				0.925
				0.97783
				0.968439
				1.02329
				1.00751
				1.05666
				1.03852
				1.0776
				1.05625
				1.07759
				1.06278
				1.05661
				1.05622
				1.02318
				1.03845
				0.977666
				1.00741
				0.922945
				0.968296
				0.865133
				0.924814
				0.813206
				0.881955
				0.780004
				0.847538
				0.779517
				0.832378
				0.812517
				0.844646
				0.86445
				0.879919
				0.920501
				0.925409
				0.96976
				0.968879
				1.00551
				1.00177
				1.02602
				1.02097
				1.03698
				1.02853
				1.0248
				1.02537
				1.02372
				1.02836
				1.01593
				1.02084
				1.00084
				1.00513
				0.981334
				0.985147
				0.960312
				0.961932
				0.941296
				0.937223
				0.929265
				0.915858
				0.929014
				0.905809
				0.941124
				0.912646
				0.961395
				0.933846
				0.98451
				0.962129
				1.00641
				0.991064
				1.02448
				1.01661
				1.0371
				1.03644
				1.04377
				1.04828
				1.04376
				1.04798
				1.03707
				1.04826
				1.02443
				1.03639
				1.00635
				1.01654
				0.984417
				0.990964
				0.961279
				0.961997
				0.940987
				0.933684
				0.928867
				0.912461
				0.929126
				0.905623
				0.941177
				0.915696
				0.960223
				0.937098
				0.981304
				0.961874
				1.00091
				0.985246
				1.01611
				1.00549
				1.02383
				1.02124
				1.02457
				1.02737
				1.01572
				1.01618
				1.01757
				1.01693
				1.01145
				1.01653
				1.00124
				1.00924
				0.987796
				0.999409
				0.973063
				0.988426
				0.960169
				0.977448
				0.952736
				0.968691
				0.953281
				0.964779
				0.961796
				0.967143
				0.975752
				0.974922
				0.991807
				0.98579
				1.00715
				0.997264
				1.01984
				1.00749
				1.02861
				1.01536
				1.03258
				1.02012
				1.03257
				1.0216
				1.02859
				1.02011
				1.0198
				1.01533
				1.00709
				1.00745
				0.991738
				0.997214
				0.975667
				0.985727
				0.961699
				0.974848
				0.95318
				0.967064
				0.952646
				0.964705
				0.960101
				0.968632
				0.973012
				0.977405
				0.987725
				0.988389
				1.00108
				0.999362
				1.01116
				1.00916
				1.01756
				1.01632
				1.01649
				1.01548
				1.00456
				0.999211
				1.00657
				1.00775
				1.00443
				1.00619
				1.00115
				1.00246
				0.997311
				0.997664
				0.993368
				0.992688
				0.990107
				0.988331
				0.988378
				0.985498
				0.988764
				0.985068
				0.991198
				0.987361
				0.995054
				0.991864
				0.999462
				0.997526
				1.00365
				1.00323
				1.00709
				1.00811
				1.0095
				1.01166
				1.0108
				1.0137
				1.0108
				1.01374
				1.00949
				1.0137
				1.00707
				1.01165
				1.00363
				1.00808
				0.999436
				1.0032
				0.995023
				0.997491
				0.991165
				0.991825
				0.988731
				0.98732
				0.988349
				0.985029
				0.990085
				0.985464
				0.993359
				0.988311
				0.997326
				0.992699
				1.00121
				0.997744
				1.00457
				1.00265
				1.00679
				1.00642
				1.00437
				1.00765
				1.00149
				1.00209
				1.00447
				1.00268
				1.00274
				1.00329
				1.00075
				1.00209
				0.998427
				1.00041
				0.996036
				0.998564
				0.994029
				0.996867
				0.992937
				0.995606
				0.993121
				0.995067
				0.994581
				0.995423
				0.996936
				0.996595
				0.999644
				0.998267
				1.00223
				1.00005
				1.00436
				1.00163
				1.00587
				1.00281
				1.00664
				1.00348
				1.00664
				1.00366
				1.00586
				1.00347
				1.00435
				1.0028
				1.00221
				1.00162
				0.999626
				1.00004
				0.996914
				0.998251
				0.994559
				0.996578
				0.993099
				0.995406
				0.992919
				0.995052
				0.994015
				0.995595
				0.996025
				0.996859
				0.998409
				0.998559
				1.00071
				1.00041
				1.00267
				1.00207
				1.00449
				1.00322
				1.00083
				1.00227
				0.99964
				0.996112
				1.00079
				1.00167
				1.00048
				1.00054
				1.00001
				1.00011
				0.999512
				0.999482
				0.999028
				0.99883
				0.998655
				0.998312
				0.998504
				0.998074
				0.998646
				0.998198
				0.999053
				0.998671
				0.999635
				0.999393
				1.00027
				1.00022
				1.00087
				1.00102
				1.00135
				1.00168
				1.0017
				1.00214
				1.00188
				1.00237
				1.00188
				1.00239
				1.00169
				1.00237
				1.00135
				1.00213
				1.00086
				1.00167
				1.00027
				1.00101
				0.999627
				1.00021
				0.999045
				0.999382
				0.998638
				0.998661
				0.998498
				0.998188
				0.998651
				0.998066
				0.999027
				0.998307
				0.999515
				0.998831
				1.00002
				0.999495
				1.0005
				1.00014
				1.00081
				1.00057
				0.999403
				1.00175
				0.999646
				0.999877
				1.00066
				1.00007
				1.00035
				1.00035
				1.0001
				1.00021
				0.999828
				1.00005
				0.999553
				0.999862
				0.99933
				0.999688
				0.999217
				0.999568
				0.999257
				0.99953
				0.999457
				0.999592
				0.999774
				0.999747
				1.00014
				0.99996
				1.00049
				1.00019
				1.00078
				1.00038
				1.001
				1.00053
				1.00111
				1.0006
				1.00111
				1.00061
				1.001
				1.0006
				1.00078
				1.00052
				1.00049
				1.00038
				1.00014
				1.00018
				0.999769
				0.999956
				0.999452
				0.999743
				0.999253
				0.999588
				0.999213
				0.999527
				0.999328
				0.999567
				0.999554
				0.999689
				0.99983
				0.999865
				1.0001
				1.00005
				1.00035
				1.00021
				1.00068
				1.00034
				0.999057
				0.999974
				0.999575
				0.998662
				1.00004
				1.00038
				1.00002
				0.999917
				0.999984
				0.999918
				0.999938
				0.999878
				0.999897
				0.999835
				0.999875
				0.999806
				0.999889
				0.999813
				0.999946
				0.999868
				1.00004
				0.999972
				1.00016
				1.00011
				1.00027
				1.00025
				1.00037
				1.00038
				1.00045
				1.00048
				1.00051
				1.00055
				1.00054
				1.00058
				1.00054
				1.00058
				1.00051
				1.00058
				1.00045
				1.00055
				1.00037
				1.00048
				1.00027
				1.00038
				1.00015
				1.00025
				1.00004
				1.0001
				0.99994
				0.999966
				0.999883
				0.999863
				0.999871
				0.999809
				0.999894
				0.999802
				0.999936
				0.999829
				0.999983
				0.99987
				1.00002
				0.999906
				1.00003
				0.999901
				0.999376
				1.00047
			</DataArray>
			<DataArray type="Float64" Name="mach-number" Format="ascii">
				0.0555564
				0.0707308
				0.140474
				0.115222
				0.251457
				0.208296
				0.374552
				0.31602
				0.500862
				0.427017
				0.621127
				0.533418
				0.723063
				0.626235
				0.786909
				0.692736
				0.790268
				0.717501
				0.735481
				0.694559
				0.645794
				0.634795
				0.539357
				0.552581
				0.425844
				0.457841
				0.310284
				0.356729
				0.19484
				0.254766
				0.09174
				0.16427
				0.0919664
				0.150388
				0.195178
				0.164548
				0.31066
				0.255083
				0.426255
				0.357071
				0.539814
				0.458212
				0.646314
				0.552988
				0.736082
				0.635247
				0.790938
				0.695058
				0.78755
				0.718023
				0.723578
				0.693214
				0.621556
				0.626633
				0.501361
				0.533765
				0.375381
				0.427391
				0.252884
				0.316526
				0.143314
				0.209148
				0.0595583
				0.119467
				0.18636
				0.136353
				0.259888
				0.1934
				0.324255
				0.27282
				0.381479
				0.347069
				0.43534
				0.414983
				0.486486
				0.478283
				0.530252
				0.536331
				0.557218
				0.582098
				0.557981
				0.602857
				0.531226
				0.589405
				0.484383
				0.54547
				0.426837
				0.4825
				0.366307
				0.410749
				0.309335
				0.337258
				0.263554
				0.268343
				0.239659
				0.215064
				0.239703
				0.230306
				0.26368
				0.215242
				0.309512
				0.268542
				0.366525
				0.337495
				0.427094
				0.411028
				0.484678
				0.482822
				0.531553
				0.545834
				0.558322
				0.589801
				0.557545
				0.603254
				0.53055
				0.582465
				0.486742
				0.536652
				0.435483
				0.478483
				0.381334
				0.414799
				0.323628
				0.346103
				0.258738
				0.270772
				0.181956
				0.196958
				0.235027
				0.237546
				0.299762
				0.296152
				0.335976
				0.331401
				0.368046
				0.354994
				0.403796
				0.381423
				0.440735
				0.41118
				0.471951
				0.439129
				0.490103
				0.459303
				0.490369
				0.466742
				0.472666
				0.459398
				0.44143
				0.439413
				0.402909
				0.411497
				0.363079
				0.380837
				0.327241
				0.352053
				0.300182
				0.328949
				0.282128
				0.314004
				0.282147
				0.313787
				0.300258
				0.314048
				0.327363
				0.329029
				0.363237
				0.352168
				0.403099
				0.380984
				0.441649
				0.41167
				0.472905
				0.439607
				0.490612
				0.459603
				0.490326
				0.466941
				0.472134
				0.459474
				0.4409
				0.439258
				0.404057
				0.411289
				0.368633
				0.381591
				0.337097
				0.355359
				0.300541
				0.332174
				0.22772
				0.297837
				0.326712
				0.277628
				0.360054
				0.351101
				0.368455
				0.359771
				0.379242
				0.371729
				0.39085
				0.386187
				0.401249
				0.400995
				0.409052
				0.413443
				0.412755
				0.421428
				0.411156
				0.423143
				0.404333
				0.417888
				0.393762
				0.406701
				0.381617
				0.391974
				0.369968
				0.376505
				0.360337
				0.362705
				0.353625
				0.352222
				0.3499
				0.346198
				0.349911
				0.346037
				0.353658
				0.346224
				0.36039
				0.352274
				0.370041
				0.362781
				0.381708
				0.376603
				0.393868
				0.392091
				0.404449
				0.406832
				0.411275
				0.418027
				0.412871
				0.423281
				0.409156
				0.421556
				0.401325
				0.41354
				0.390854
				0.40101
				0.379113
				0.386019
				0.368156
				0.371279
				0.359996
				0.358971
				0.323481
				0.353615
				0.342595
				0.336886
				0.368385
				0.367224
				0.372473
				0.372866
				0.378341
				0.376877
				0.384601
				0.381109
				0.390771
				0.38554
				0.396028
				0.389882
				0.399048
				0.393144
				0.398811
				0.394315
				0.395231
				0.392941
				0.389198
				0.389372
				0.382061
				0.384511
				0.375095
				0.379387
				0.369228
				0.374846
				0.36502
				0.371454
				0.362294
				0.369544
				0.362302
				0.369491
				0.365044
				0.369557
				0.369266
				0.371479
				0.375146
				0.374884
				0.382126
				0.379436
				0.389273
				0.38457
				0.395313
				0.389439
				0.398894
				0.393012
				0.399126
				0.394384
				0.3961
				0.393209
				0.390846
				0.389943
				0.384699
				0.385605
				0.37849
				0.381192
				0.37271
				0.376983
				0.368831
				0.373022
				0.338338
				0.367106
				0.368841
				0.34365
				0.379174
				0.383737
				0.379845
				0.378242
				0.380898
				0.380472
				0.382092
				0.382001
				0.383291
				0.383692
				0.384122
				0.385167
				0.384333
				0.385961
				0.383828
				0.385821
				0.382692
				0.384761
				0.381148
				0.383009
				0.379492
				0.38092
				0.377988
				0.378873
				0.376804
				0.377171
				0.376004
				0.376011
				0.375485
				0.375503
				0.375489
				0.375593
				0.376015
				0.375511
				0.376823
				0.376029
				0.378015
				0.377197
				0.379526
				0.378907
				0.381188
				0.380963
				0.382737
				0.383058
				0.383877
				0.384815
				0.384384
				0.385878
				0.384174
				0.386018
				0.38334
				0.385221
				0.382131
				0.383737
				0.380924
				0.382027
				0.37984
				0.380465
				0.379285
				0.378006
				0.367186
				0.385001
				0.372392
				0.369038
				0.379455
				0.378876
				0.379968
				0.380234
				0.380386
				0.380298
				0.381062
				0.380688
				0.3818
				0.381193
				0.38242
				0.381674
				0.382753
				0.382018
				0.382668
				0.382109
				0.382144
				0.381884
				0.381292
				0.381381
				0.380296
				0.380716
				0.379334
				0.380026
				0.378534
				0.379426
				0.377984
				0.379004
				0.377568
				0.378831
				0.377571
				0.378892
				0.377992
				0.378835
				0.378548
				0.379013
				0.379353
				0.37944
				0.380321
				0.380045
				0.381321
				0.380739
				0.382177
				0.381407
				0.382704
				0.381913
				0.382791
				0.382141
				0.382459
				0.382054
				0.38184
				0.381713
				0.381103
				0.381238
				0.380432
				0.380742
				0.380037
				0.380363
				0.379641
				0.38033
				0.37005
				0.378446
				0.378176
				0.369602
				0.380869
				0.382596
				0.380587
				0.380732
				0.380632
				0.380768
				0.380685
				0.380861
				0.38072
				0.380967
				0.380712
				0.381034
				0.380631
				0.381018
				0.380468
				0.380889
				0.380242
				0.380653
				0.379989
				0.380347
				0.379745
				0.380023
				0.379537
				0.379733
				0.379381
				0.379513
				0.379282
				0.379387
				0.379234
				0.379408
				0.379235
				0.379473
				0.379287
				0.379411
				0.379389
				0.379394
				0.379548
				0.379524
				0.379759
				0.379748
				0.380006
				0.380041
				0.380261
				0.380367
				0.38049
				0.380677
				0.380656
				0.380917
				0.380741
				0.38105
				0.380757
				0.381075
				0.380732
				0.381019
				0.380693
				0.38093
				0.380665
				0.380858
				0.380989
				0.380823
				0.377784
				0.382886
			</DataArray>
			<DataArray type="Float64" Name="pressure" Format="ascii">
				5.24712
				5.24557
				5.19028
				5.22151
				5.0428
				5.15
				4.79104
				5.00333
				4.45335
				4.76734
				4.07899
				4.46914
				3.73987
				4.16775
				3.52682
				3.93943
				3.52552
				3.85954
				3.73047
				3.95366
				4.05924
				4.17404
				4.43452
				4.45504
				4.79847
				4.74572
				5.10763
				5.01085
				5.33798
				5.22328
				5.48641
				5.34517
				5.48633
				5.3752
				5.33759
				5.34489
				5.10686
				5.22278
				4.79735
				5.01013
				4.43307
				4.74474
				4.05747
				4.4538
				3.7284
				4.17253
				3.52323
				3.95192
				3.52465
				3.8577
				3.73815
				3.93778
				4.07764
				4.16649
				4.452
				4.46812
				4.78951
				4.76624
				5.0416
				5.00216
				5.19161
				5.14986
				5.26135
				5.21775
				5.17839
				5.19442
				5.14375
				5.19368
				5.07041
				5.1188
				4.95575
				4.9983
				4.81532
				4.85274
				4.66696
				4.68872
				4.53456
				4.51756
				4.45205
				4.37115
				4.45122
				4.30152
				4.53518
				4.345
				4.67555
				4.4862
				4.83658
				4.67847
				4.99026
				4.87878
				5.11753
				5.05854
				5.20613
				5.20042
				5.25286
				5.28941
				5.2528
				5.29376
				5.20593
				5.28922
				5.11719
				5.2001
				4.98977
				5.05804
				4.83594
				4.87807
				4.67475
				4.67756
				4.53425
				4.48509
				4.45023
				4.34376
				4.45111
				4.30029
				4.53375
				4.37007
				4.66634
				4.51671
				4.81511
				4.68833
				4.95631
				4.85344
				5.07188
				5.0008
				5.14528
				5.12158
				5.17836
				5.19021
				5.1096
				5.11337
				5.08461
				5.09389
				5.03237
				5.06766
				4.95836
				5.01279
				4.86487
				4.94429
				4.76393
				4.86876
				4.67633
				4.79389
				4.62605
				4.7346
				4.6296
				4.70831
				4.68696
				4.72456
				4.78158
				4.77759
				4.89119
				4.85163
				4.99665
				4.92988
				5.08443
				4.99964
				5.14559
				5.05327
				5.17585
				5.08571
				5.17579
				5.09444
				5.14542
				5.08562
				5.08416
				5.0531
				4.99628
				4.99939
				4.89071
				4.92953
				4.781
				4.8512
				4.6863
				4.77709
				4.62892
				4.72402
				4.62545
				4.70781
				4.67587
				4.7342
				4.76359
				4.79361
				4.86437
				4.86852
				4.95722
				4.94397
				5.03031
				5.01218
				5.08409
				5.06605
				5.11834
				5.0851
				5.00558
				5.00337
				4.9943
				5.00628
				4.97684
				4.99044
				4.95343
				4.96349
				4.92624
				4.92979
				4.89851
				4.89495
				4.87565
				4.86451
				4.86361
				4.84472
				4.86647
				4.84166
				4.88373
				4.8575
				4.91098
				4.88873
				4.94208
				4.92818
				4.97158
				4.9681
				4.99573
				5.0024
				5.01257
				5.02756
				5.02159
				5.04228
				5.02157
				5.04455
				5.0125
				5.04223
				4.99563
				5.02746
				4.97144
				5.00225
				4.9419
				4.9679
				4.91076
				4.92794
				4.8835
				4.88846
				4.86624
				4.85721
				4.8634
				4.84138
				4.8755
				4.84449
				4.89844
				4.86437
				4.92634
				4.89503
				4.95383
				4.93035
				4.97779
				4.96482
				4.99581
				4.99203
				5.00607
				5.00451
				4.98012
				4.98555
				4.97621
				4.97132
				4.96487
				4.96857
				4.95113
				4.96034
				4.93526
				4.94911
				4.91899
				4.93675
				4.90534
				4.92531
				4.89793
				4.91675
				4.89925
				4.91304
				4.90932
				4.91542
				4.92555
				4.9234
				4.94423
				4.93482
				4.96205
				4.94705
				4.97681
				4.95791
				4.98724
				4.96602
				4.99274
				4.9706
				4.99272
				4.9718
				4.98719
				4.97058
				4.97673
				4.96598
				4.96195
				4.95784
				4.9441
				4.94695
				4.9254
				4.93471
				4.90916
				4.92328
				4.8991
				4.91531
				4.89781
				4.91294
				4.90524
				4.91668
				4.91891
				4.92526
				4.93514
				4.93671
				4.95086
				4.94907
				4.96439
				4.96021
				4.97597
				4.96813
				4.98005
				4.96962
				4.95253
				4.95177
				4.95134
				4.95257
				4.94959
				4.95006
				4.94659
				4.94709
				4.94317
				4.94289
				4.93978
				4.93845
				4.93715
				4.93488
				4.93607
				4.93321
				4.93706
				4.93406
				4.93991
				4.93732
				4.94398
				4.94232
				4.94845
				4.94808
				4.95259
				4.95362
				4.95595
				4.9582
				4.95833
				4.96138
				4.95961
				4.96303
				4.9596
				4.96327
				4.95831
				4.96302
				4.95592
				4.96135
				4.95255
				4.95816
				4.9484
				4.95357
				4.94393
				4.94801
				4.93985
				4.94225
				4.93701
				4.93725
				4.93603
				4.93399
				4.93712
				4.93316
				4.93977
				4.93485
				4.9432
				4.93846
				4.94667
				4.94298
				4.94978
				4.94731
				4.95155
				4.95032
				4.95238
				4.95227
				4.95039
				4.95323
				4.95037
				4.94848
				4.94886
				4.94887
				4.94726
				4.94805
				4.94538
				4.94691
				4.94348
				4.94562
				4.94194
				4.94443
				4.94116
				4.94361
				4.94144
				4.94335
				4.94283
				4.94377
				4.94502
				4.94484
				4.94755
				4.94631
				4.94998
				4.94787
				4.95201
				4.94923
				4.95348
				4.95021
				4.9543
				4.95071
				4.95429
				4.9508
				4.95347
				4.9507
				4.95199
				4.9502
				4.94995
				4.94921
				4.94752
				4.94784
				4.94498
				4.94628
				4.94279
				4.94481
				4.94141
				4.94375
				4.94113
				4.94333
				4.94192
				4.9436
				4.94348
				4.94444
				4.94539
				4.94564
				4.94728
				4.94693
				4.94886
				4.94807
				4.95036
				4.94884
				4.94966
				4.94852
				4.94623
				4.94721
				4.94675
				4.94681
				4.94675
				4.94612
				4.94646
				4.94602
				4.94615
				4.94574
				4.94586
				4.94543
				4.94571
				4.94523
				4.9458
				4.94528
				4.9462
				4.94566
				4.94686
				4.94638
				4.94766
				4.94733
				4.94847
				4.94833
				4.94917
				4.94923
				4.94971
				4.94993
				4.9501
				4.95038
				4.95031
				4.95059
				4.9503
				4.9506
				4.95008
				4.95058
				4.94969
				4.95037
				4.94913
				4.94991
				4.94843
				4.9492
				4.94762
				4.9483
				4.94682
				4.94729
				4.94616
				4.94634
				4.94577
				4.94563
				4.94568
				4.94526
				4.94584
				4.9452
				4.94613
				4.94539
				4.94646
				4.94568
				4.94674
				4.94594
				4.94669
				4.94604
				4.94567
				4.94701
			</DataArray>
			<DataArray type="Float64" Name="velocity" NumberOfComponents="3" Format="ascii">
				0.116971 -0.0911301 0.0 
				0.18847 0.00847549 0.0 
				0.226567 -0.29746 0.0 
				0.253235 -0.173757 0.0 
				0.437954 -0.502095 0.0 
				0.426146 -0.353275 0.0 
				0.73514 -0.655498 0.0 
				0.667 -0.503308 0.0 
				1.09043 -0.713945 0.0 
				0.951595 -0.591914 0.0 
				1.45946 -0.646499 0.0 
				1.25416 -0.59206 0.0 
				1.78091 -0.442997 0.0 
				1.53816 -0.483763 0.0 
				1.97608 -0.124856 0.0 
				1.74999 -0.264609 0.0 
				1.97294 0.239895 0.0 
				1.82747 0.0325353 0.0 
				1.77833 0.556953 0.0 
				1.74316 0.333053 0.0 
				1.46728 0.765361 0.0 
				1.53309 0.56472 0.0 
				1.11295 0.847177 0.0 
				1.25643 0.693 0.0 
				0.769863 0.808188 0.0 
				0.964743 0.712296 0.0 
				0.476301 0.667765 0.0 
				0.696708 0.632984 0.0 
				0.256136 0.450425 0.0 
				0.479086 0.476968 0.0 
				0.167792 0.178425 0.0 
				0.3385 0.27676 0.0 
				0.167906 -0.179146 0.0 
				0.400178 -0.000362163 0.0 
				0.256433 -0.451281 0.0 
				0.338831 -0.277516 0.0 
				0.476735 -0.668652 0.0 
				0.479424 -0.47781 0.0 
				0.770482 -0.809034 0.0 
				0.697162 -0.633797 0.0 
				1.11377 -0.847943 0.0 
				0.965358 -0.713039 0.0 
				1.46833 -0.76601 0.0 
				1.25722 -0.693642 0.0 
				1.77962 -0.557425 0.0 
				1.53406 -0.565214 0.0 
				1.97443 -0.240095 0.0 
				1.7443 -0.333328 0.0 
				1.97752 0.124971 0.0 
				1.82868 -0.0325255 0.0 
				1.78206 0.443314 0.0 
				1.75109 0.264861 0.0 
				1.46039 0.646944 0.0 
				1.53904 0.484163 0.0 
				1.09138 0.714773 0.0 
				1.25479 0.592734 0.0 
				0.736255 0.657454 0.0 
				0.951816 0.593347 0.0 
				0.439017 0.506128 0.0 
				0.666513 0.506105 0.0 
				0.231272 0.303329 0.0 
				0.425158 0.357966 0.0 
				0.128826 0.0927372 0.0 
				0.27243 0.164764 0.0 
				0.492211 -0.0584711 0.0 
				0.362635 0.0188511 0.0 
				0.667667 -0.171275 0.0 
				0.497206 -0.131347 0.0 
				0.814175 -0.267891 0.0 
				0.672965 -0.263867 0.0 
				0.948766 -0.329638 0.0 
				0.8431 -0.357482 0.0 
				1.08727 -0.346114 0.0 
				1.01162 -0.405257 0.0 
				1.23094 -0.308249 0.0 
				1.18359 -0.400149 0.0 
				1.3608 -0.21096 0.0 
				1.35361 -0.329939 0.0 
				1.44176 -0.062423 0.0 
				1.49303 -0.186918 0.0 
				1.44119 0.106827 0.0 
				1.55438 0.0125323 0.0 
				1.35625 0.25384 0.0 
				1.50593 0.218324 0.0 
				1.21485 0.348731 0.0 
				1.36384 0.375559 0.0 
				1.05217 0.382102 0.0 
				1.17271 0.457834 0.0 
				0.896228 0.358099 0.0 
				0.973125 0.464532 0.0 
				0.766327 0.286227 0.0 
				0.792297 0.405738 0.0 
				0.676097 0.176215 0.0 
				0.647877 0.293401 0.0 
				0.63457 0.0446631 0.0 
				0.553901 0.141165 0.0 
				0.634635 -0.0453897 0.0 
				0.612458 -0.000417995 0.0 
				0.676278 -0.176837 0.0 
				0.554197 -0.141891 0.0 
				0.766594 -0.28682 0.0 
				0.648149 -0.294067 0.0 
				0.896603 -0.35867 0.0 
				0.792651 -0.406392 0.0 
				1.05267 -0.38263 0.0 
				0.97361 -0.465161 0.0 
				1.21549 -0.349181 0.0 
				1.17335 -0.458404 0.0 
				1.35701 -0.254162 0.0 
				1.36465 -0.37602 0.0 
				1.44202 -0.106963 0.0 
				1.50686 -0.218603 0.0 
				1.44256 0.062509 0.0 
				1.55534 -0.0125689 0.0 
				1.3615 0.211229 0.0 
				1.4939 0.187104 0.0 
				1.23153 0.308563 0.0 
				1.35434 0.330319 0.0 
				1.08764 0.346144 0.0 
				1.18393 0.400753 0.0 
				0.948691 0.328751 0.0 
				1.01085 0.405942 0.0 
				0.8133 0.265406 0.0 
				0.840452 0.357361 0.0 
				0.665313 0.168431 0.0 
				0.66816 0.261399 0.0 
				0.478465 0.0730583 0.0 
				0.508026 0.127587 0.0 
				0.622652 -0.0364328 0.0 
				0.63049 0.00246605 0.0 
				0.783626 -0.12053 0.0 
				0.781471 -0.0660207 0.0 
				0.869617 -0.173315 0.0 
				0.867842 -0.115615 0.0 
				0.946202 -0.209387 0.0 
				0.924384 -0.147711 0.0 
				1.0372 -0.220086 0.0 
				0.990727 -0.161534 0.0 
				1.1372 -0.195393 0.0 
				1.06906 -0.151751 0.0 
				1.22532 -0.131625 0.0 
				1.14497 -0.114422 0.0 
				1.27732 -0.0359784 0.0 
				1.20041 -0.0503917 0.0 
				1.27659 0.072313 0.0 
				1.21962 0.0304852 0.0 
				1.2231 0.168052 0.0 
				1.19637 0.109808 0.0 
				1.13281 0.231504 0.0 
				1.1384 0.16948 0.0 
				1.02756 0.254787 0.0 
				1.06154 0.199589 0.0 
				0.926331 0.239856 0.0 
				0.981924 0.198982 0.0 
				0.842532 0.193852 0.0 
				0.911881 0.171912 0.0 
				0.784327 0.126104 0.0 
				0.859221 0.125235 0.0 
				0.74602 0.0449831 0.0 
				0.826837 0.067201 0.0 
				0.746039 -0.0454992 0.0 
				0.8291 -0.000229514 0.0 
				0.784445 -0.126614 0.0 
				0.826914 -0.0676602 0.0 
				0.842743 -0.194343 0.0 
				0.859365 -0.125686 0.0 
				0.926632 -0.240321 0.0 
				0.912103 -0.172343 0.0 
				1.02796 -0.255211 0.0 
				0.982225 -0.199384 0.0 
				1.1333 -0.231859 0.0 
				1.06193 -0.199944 0.0 
				1.22367 -0.168302 0.0 
				1.13886 -0.169764 0.0 
				1.2772 -0.072424 0.0 
				1.19688 -0.109997 0.0 
				1.27787 0.0360188 0.0 
				1.22012 -0.0305661 0.0 
				1.22576 0.131788 0.0 
				1.20084 0.0504221 0.0 
				1.13759 0.19561 0.0 
				1.14529 0.114597 0.0 
				1.03784 0.220295 0.0 
				1.06928 0.152206 0.0 
				0.947684 0.209688 0.0 
				0.991002 0.162534 0.0 
				0.872411 0.17416 0.0 
				0.925052 0.149483 0.0 
				0.785292 0.12301 0.0 
				0.869632 0.117281 0.0 
				0.603381 0.0385867 0.0 
				0.786212 0.0613079 0.0 
				0.8626 -0.0233125 0.0 
				0.735056 0.00487614 0.0 
				0.948242 -0.036879 0.0 
				0.925313 -0.0337128 0.0 
				0.968908 -0.0543567 0.0 
				0.946117 -0.0601413 0.0 
				0.996032 -0.0645433 0.0 
				0.975531 -0.0787356 0.0 
				1.02571 -0.0657746 0.0 
				1.01204 -0.0867014 0.0 
				1.05275 -0.0568341 0.0 
				1.05043 -0.0815138 0.0 
				1.07339 -0.0372162 0.0 
				1.08346 -0.0630108 0.0 
				1.08333 -0.00897369 0.0 
				1.10511 -0.0324311 0.0 
				1.07904 0.0223655 0.0 
				1.10997 0.00582123 0.0 
				1.06078 0.0494907 0.0 
				1.09584 0.0437319 0.0 
				1.03289 0.0667596 0.0 
				1.06586 0.0728676 0.0 
				1.00148 0.0720086 0.0 
				1.02711 0.0879203 0.0 
				0.972034 0.0661526 0.0 
				0.987452 0.0879098 0.0 
				0.948181 0.0518169 0.0 
				0.953036 0.0751141 0.0 
				0.931809 0.0320215 0.0 
				0.927525 0.0532917 0.0 
				0.922725 0.0097664 0.0 
				0.913201 0.0263521 0.0 
				0.92275 -0.010081 0.0 
				0.913345 -0.000179721 0.0 
				0.931884 -0.0323295 0.0 
				0.913258 -0.0267086 0.0 
				0.948304 -0.0521148 0.0 
				0.927639 -0.0536384 0.0 
				0.972204 -0.0664321 0.0 
				0.953206 -0.0754438 0.0 
				1.0017 -0.0722599 0.0 
				0.987678 -0.0882115 0.0 
				1.03315 -0.0669716 0.0 
				1.02739 -0.088181 0.0 
				1.06107 -0.0496518 0.0 
				1.06618 -0.0730735 0.0 
				1.07934 -0.0224682 0.0 
				1.09619 -0.0438725 0.0 
				1.08362 0.00892562 0.0 
				1.11032 -0.00589449 0.0 
				1.07366 0.0372005 0.0 
				1.10544 0.0324244 0.0 
				1.05294 0.0568064 0.0 
				1.08371 0.0630892 0.0 
				1.02573 0.0656592 0.0 
				1.05046 0.0817256 0.0 
				0.995725 0.0642227 0.0 
				1.01158 0.0870644 0.0 
				0.96818 0.0537657 0.0 
				0.974352 0.0790817 0.0 
				0.948154 0.036288 0.0 
				0.944055 0.0599613 0.0 
				0.854046 0.0280266 0.0 
				0.931907 0.0314708 0.0 
				0.903935 -0.00443444 0.0 
				0.889099 0.000268474 0.0 
				0.969935 -0.0212462 0.0 
				0.967454 -0.00905821 0.0 
				0.980198 -0.0300897 0.0 
				0.981643 -0.0171936 0.0 
				0.995082 -0.0356451 0.0 
				0.991878 -0.0221307 0.0 
				1.01109 -0.0364373 0.0 
				1.00268 -0.0240937 0.0 
				1.02703 -0.031433 0.0 
				1.01406 -0.0221076 0.0 
				1.04075 -0.0198721 0.0 
				1.02529 -0.0153229 0.0 
				1.04866 -0.00295674 0.0 
				1.03373 -0.00431443 0.0 
				1.04796 0.0159101 0.0 
				1.03667 0.00890906 0.0 
				1.03847 0.0323945 0.0 
				1.03294 0.021444 0.0 
				1.02269 0.0431486 0.0 
				1.02355 0.0306777 0.0 
				1.00427 0.046813 0.0 
				1.01094 0.0350891 0.0 
				0.986564 0.043778 0.0 
				0.997813 0.0344895 0.0 
				0.971856 0.0353622 0.0 
				0.986317 0.0296282 0.0 
				0.961426 0.0230871 0.0 
				0.977817 0.0216141 0.0 
				0.954644 0.00818099 0.0 
				0.973085 0.0115072 0.0 
				0.954663 -0.00842354 0.0 
				0.973043 -0.000105731 0.0 
				0.961481 -0.0233249 0.0 
				0.973115 -0.0117169 0.0 
				0.971945 -0.0355913 0.0 
				0.977877 -0.0218181 0.0 
				0.986689 -0.0439936 0.0 
				0.986408 -0.0298232 0.0 
				1.00443 -0.0470089 0.0 
				0.997934 -0.0346716 0.0 
				1.02287 -0.0433178 0.0 
				1.01108 -0.0352534 0.0 
				1.03868 -0.03253 0.0 
				1.02371 -0.0308196 0.0 
				1.04817 -0.0160081 0.0 
				1.03312 -0.0215603 0.0 
				1.04886 0.00289251 0.0 
				1.03685 -0.00899858 0.0 
				1.04094 0.0198262 0.0 
				1.0339 0.00425286 0.0 
				1.02723 0.0313794 0.0 
				1.02545 0.015295 0.0 
				1.01135 0.0363528 0.0 
				1.01423 0.0221293 0.0 
				0.995469 0.0355331 0.0 
				1.00289 0.0241943 0.0 
				0.980812 0.029991 0.0 
				0.992148 0.0223295 0.0 
				0.971074 0.0214791 0.0 
				0.982042 0.0173306 0.0 
				0.892991 0.00423306 0.0 
				0.967182 0.00853444 0.0 
				0.971374 -0.00617184 0.0 
				0.90658 0.00113199 0.0 
				0.997904 -0.00439486 0.0 
				1.00959 -0.00344344 0.0 
				0.999637 -0.00657499 0.0 
				0.995426 -0.00789689 0.0 
				1.00233 -0.00777453 0.0 
				1.00119 -0.00964958 0.0 
				1.00537 -0.00780621 0.0 
				1.0051 -0.0106016 0.0 
				1.00844 -0.00640576 0.0 
				1.00943 -0.0097364 0.0 
				1.01056 -0.00372318 0.0 
				1.01323 -0.00688062 0.0 
				1.01108 -0.000148538 0.0 
				1.01529 -0.00255499 0.0 
				1.00978 0.00366398 0.0 
				1.01495 0.00234582 0.0 
				1.00686 0.00689581 0.0 
				1.01223 0.00682567 0.0 
				1.0029 0.00887026 0.0 
				1.00774 0.0100504 0.0 
				0.998671 0.00931324 0.0 
				1.0024 0.0115018 0.0 
				0.994841 0.00835226 0.0 
				0.997172 0.0111074 0.0 
				0.991838 0.00635579 0.0 
				0.992846 0.00917789 0.0 
				0.989813 0.00377249 0.0 
				0.989907 0.00624105 0.0 
				0.988488 0.00113096 0.0 
				0.988631 0.00289024 0.0 
				0.988499 -0.00125542 0.0 
				0.988888 -7.38137e-05 0.0 
				0.989842 -0.0038955 0.0 
				0.988653 -0.00303719 0.0 
				0.991887 -0.00647506 0.0 
				0.98995 -0.0063849 0.0 
				0.99491 -0.0084654 0.0 
				0.992912 -0.00931586 0.0 
				0.998758 -0.00941787 0.0 
				0.997261 -0.0112365 0.0 
				1.003 -0.00896428 0.0 
				1.00251 -0.0116192 0.0 
				1.00697 -0.00697789 0.0 
				1.00787 -0.0101541 0.0 
				1.00991 -0.00373426 0.0 
				1.01237 -0.00691507 0.0 
				1.01122 8.81445e-05 0.0 
				1.01509 -0.0024213 0.0 
				1.01069 0.00366944 0.0 
				1.01544 0.00249393 0.0 
				1.00857 0.00635401 0.0 
				1.01337 0.00683766 0.0 
				1.00548 0.00774779 0.0 
				1.00955 0.00971739 0.0 
				1.0024 0.00769422 0.0 
				1.00517 0.0106105 0.0 