<VTKFile type="UnstructuredGrid" version="0.1" byte_order="LittleEndian">
<UnstructuredGrid>
	<Piece NumberOfPoints="288" NumberOfCells="512">
		<CellData Scalars="density" Vectors="velocity">
			<DataArray type="Float64" Name="density" Format="ascii">
				-24.9749
				6.12686
				nan
				25.5845
				15.0748
				4.17816
				1.29331
				0.781767
				1.2707
				0.605729
				1.29471
				0.763066
				1.19292
				0.934935
				1.20951
				0.798632
				1.23593
				0.756834
				1.27688
				1.18349
				1.25261
				1.18848
				1.40945
				1.06991
				1.11099
				1.26344
				2.28005
				4.43373
				2.16865
				5.05301
				2.06771
				5.24074
				2.06771
				5.28823
				2.16644
				5.24074
				2.27287
				5.04285
				2.96125
				4.96502
				2.33063
				5.67219
				1.92593
				5.03968
				1.68643
				3.29958
				1.51187
				2.09481
				1.23974
				1.71522
				1.00304
				0.992207
				0.686555
				1.05961
				0.939659
				-0.326525
				1.18907
				0.356423
				-46.8808
				0.804437
				-58.7088
				1177.57
				-8.24399
				0.904259
				nan
				2.52582
				-10.8309
				-4.44548
				-4.52138
				2.14916
				0.944119
				1.01744
				0.935441
				1.0572
				0.821238
				1.01759
				0.92107
				1.02544
				0.891047
				1.03617
				0.874636
				1.03456
				0.868203
				1.03402
				0.851583
				1.01681
				0.99077
				1.03978
				1.04674
				1.03952
				1.26285
				1.18144
				1.37964
				1.29186
				1.39538
				1.29963
				1.39538
				1.29723
				1.38027
				1.29963
				1.25203
				1.28893
				1.30499
				1.32935
				1.28312
				1.30216
				1.1179
				1.28269
				1.24923
				1.18304
				1.27306
				1.15358
				1.18579
				1.10415
				1.1192
				1.06593
				0.909988
				1.00778
				1.12642
				1.04625
				0.929436
				1.03826
				0.8784
				1.01632
				-3.00707
				8.29241
				11.0059
				2.27833
				nan
				34.3281
				778.166
				-2.85544
				760.033
				-70.9506
				1.64034
				0.640474
				3.27474
				0.871552
				1.18244
				1.04426
				1.11865
				1.19605
				1.11747
				1.18702
				1.12272
				1.20367
				1.13871
				1.22228
				1.15968
				1.24266
				1.30651
				1.1594
				nan
				1.26128
				3.05682
				2.8465
				3.38344
				3.97698
				3.44434
				4.24397
				3.44434
				4.30369
				3.38536
				4.24397
				3.10686
				3.98238
				4.90657
				3.83974
				3.15113
				4.24016
				2.50091
				3.39851
				2.68608
				2.41454
				1.81603
				1.66096
				1.25999
				1.16619
				1.13885
				1.05287
				0.784403
				0.983637
				1.09989
				0.873009
				1.68982
				0.900516
				3.76523
				0.633741
				-3.06578
				0.681447
				8.4462
				5.07623
				nan
				335.143
				7.48471
				-2.74562
				-2.71247
				7.38645
				1.06794
				1.0219
				1.09302
				1.01831
				1.05198
				1.04104
				1.06285
				1.03993
				0.938053
				1.03871
				0.977355
				1.02403
				0.964142
				1.02493
				1.08149
				1.04996
				1.08464
				1.0725
				1.04337
				1.05376
				1.16005
				1.06804
				1.16377
				1.2038
				1.17374
				1.22501
				1.17374
				1.22792
				1.16365
				1.22501
				1.14073
				1.20467
				1.09963
				1.20528
				1.06405
				1.17004
				1.08792
				1.12487
				1.14884
				1.09995
				1.11169
				1.09322
				1.0958
				1.06821
				1.07954
				1.0537
				1.07028
				1.0446
				1.04189
				1.02541
				1.07198
				1.02908
				1.05892
				1.01587
				2.14881
				1.02974
				-251.881
				3.93752
				nan
				-182471
				9.38777
				0.503658
				1.71238
				1.21264
				1.19202
				0.93197
				1.39789
				0.943938
				1.128
				1.11618
				1.14467
				1.11
				1.09988
				1.11918
				1.16656
				1.14537
				1.17506
				1.16207
				1.24033
				1.16835
				1.25531
				1.10626
				-0.638748
				1.20896
				2.59993
				2.6941
				2.60093
				3.25708
				2.6788
				3.44401
				2.6788
				3.49695
				2.59996
				3.44401
				2.5736
				3.25308
				4.31549
				2.8447
				2.04213
				3.09221
				1.30913
				2.25832
				1.30068
				2.04004
				1.21132
				1.48028
				1.15496
				1.09688
				1.08506
				1.01041
				1.02975
				0.939911
				0.934494
				0.999507
				1.19014
				0.916805
				1.56986
				0.918729
				-36.5997
				0.771866
				18.6007
				1.15318
				-nan
				1.04081e+07
				1.51369
				1.01572
				1.03579
				1.0551
				1.06009
				1.02513
				1.07475
				1.02308
				1.04337
				1.031
				1.04858
				1.02743
				1.05262
				1.02931
				1.05551
				1.03434
				1.06003
				1.0398
				1.06555
				1.04828
				1.07543
				1.05463
				1.01446
				1.06843
				1.07892
				1.07027
				1.13185
				1.12959
				1.15172
				1.14395
				1.15172
				1.1487
				1.13178
				1.14395
				1.06815
				1.12892
				1.0798
				1.10048
				1.05748
				1.07888
				1.08056
				1.06545
				1.06887
				1.05875
				1.06712
				1.04999
				1.06179
				1.04299
				1.05739
				1.03755
				1.05809
				1.03402
				1.03646
				1.02458
				1.06295
				1.02485
				1.02744
				1.01866
				-1664.55
				1.01746
				-1.06205e+06
				4.99176
				nan
				-124994
				-92.204
				-11.512
				1.17645
				0.848307
				1.16386
				0.909247
				1.366
				0.939297
				1.10826
				1.10183
				1.12169
				1.09616
				1.13615
				1.11069
				1.15318
				1.12444
				1.17761
				1.13997
				1.20976
				1.16321
				1.26128
				1.19296
				-0.516525
				1.20856
				3.24093
				2.56747
				2.47038
				2.86346
				2.53166
				3.26863
				2.53166
				3.32408
				2.4698
				3.26862
				3.13841
				2.86116
				4.09699
				2.67531
				1.27661
				2.92874
				1.27061
				2.15251
				1.20886
				1.94229
				1.16902
				1.18076
				1.11418
				1.08926
				1.0617
				1.00825
				1.02434
				0.944005
				0.92882
				1.00182
				1.16443
				0.914064
				1.4683
				0.896528
				48810.8
				0.61494
				29707.6
				-2736.47
				-415624
				163831
				4.01661
				6.1794
				0.889138
				0.898606
				1.06448
				1.00455
				1.04613
				1.00683
				1.03827
				1.00882
				1.02592
				1.01108
				1.01203
				1.0145
				0.997466
				1.01794
				0.982765
				1.02163
				0.968348
				1.02624
				0.952523
				1.03071
				0.943687
				1.03298
				0.925446
				1.065
				0.921301
				1.09056
				0.923557
				1.11779
				0.923557
				1.11892
				0.921312
				1.11779
				0.921698
				1.09014
				0.932227
				1.07962
				0.954916
				1.0605
				0.969064
				1.04369
				0.98243
				1.03458
				0.996908
				1.02586
				1.01208
				1.01942
				1.02754
				1.01459
				1.04316
				1.01082
				1.05776
				1.00769
				1.0644
				1.00248
				1.0673
				1.00147
				49030.3
				0.880709
				7264.07
				-1891.22
			</DataArray>
			<DataArray type="Float64" Name="mach-number" Format="ascii">
				-nan
				5.28638
				nan
				2.13322
				-nan
				-nan
				0.361667
				0.778692
				0.373258
				0.718514
				0.4325
				0.64262
				0.441416
				0.592855
				0.430741
				0.527316
				0.427204
				0.511593
				0.43586
				0.494894
				0.453928
				0.6211
				0.552657
				0.652859
				0.802131
				0.862942
				0.403366
				0.657789
				0.366254
				0.691209
				0.345851
				0.689521
				0.345851
				0.688493
				0.365737
				0.68952
				0.423514
				0.688838
				0.498395
				0.736586
				0.590264
				0.529189
				0.587234
				0.556403
				0.528389
				0.532848
				0.59996
				0.802715
				0.533537
				0.522994
				0.447752
				0.267132
				0.402346
				0.298012
				0.117724
				-nan
				0.281542
				0.200805
				-nan
				0.77072
				-nan
				-nan
				-nan
				0.730281
				nan
				0.80521
				-nan
				1.73815
				1.71111
				-nan
				0.426788
				0.232567
				0.381407
				0.296771
				0.444443
				0.340095
				0.407005
				0.355655
				0.401808
				0.369521
				0.393856
				0.379227
				0.381663
				0.389761
				0.394279
				0.404529
				0.400898
				0.399825
				0.598175
				0.39928
				0.429963
				0.447498
				0.466307
				0.499883
				0.464549
				0.510789
				0.464549
				0.513977
				0.466804
				0.510789
				0.426382
				0.499746
				0.334381
				0.516855
				0.42787
				0.561963
				0.398581
				0.505093
				0.402894
				0.473583
				0.410073
				0.415849
				0.389204
				0.377682
				0.380433
				0.358732
				0.408944
				0.353921
				0.367986
				0.386476
				0.424593
				0.283174
				-nan
				0.228506
				5.07211
				1.38738
				-nan
				0.688186
				nan
				-nan
				0.195127
				-nan
				0.370266
				-nan
				0.334809
				0.5156
				0.111577
				0.471261
				0.853447
				0.458524
				0.421123
				0.58111
				0.518781
				0.526986
				0.612028
				0.506325
				0.716466
				0.524864
				0.632152
				0.589252
				0.670158
				0.532922
				nan
				0.746587
				0.685911
				0.563608
				1.0243
				0.942457
				1.05424
				0.983648
				1.05424
				0.996748
				1.02535
				0.983648
				0.688204
				0.943272
				0.616421
				0.942881
				0.631819
				0.634504
				0.512116
				0.621832
				0.520746
				0.577637
				0.829233
				0.691368
				0.716969
				0.48814
				0.494562
				0.304795
				0.345194
				0.177242
				0.158799
				0.225105
				0.331101
				0.445789
				0.227202
				0.502943
				-nan
				0.635983
				-nan
				0.769431
				nan
				-nan
				4.2843
				4.94265
				5.2627
				1.31574
				0.3572
				0.325348
				0.347469
				0.331899
				0.372344
				0.33987
				0.374579
				0.355284
				0.387954
				0.377575
				0.389047
				0.380857
				0.394234
				0.391534
				0.412253
				0.394226
				0.419187
				0.427371
				0.310904
				0.414833
				0.417306
				0.397202
				0.399825
				0.497385
				0.393613
				0.515717
				0.393613
				0.521591
				0.399695
				0.515717
				0.396427
				0.497847
				0.410479
				0.502963
				0.398838
				0.49463
				0.411369
				0.445081
				0.398516
				0.427125
				0.389372
				0.39446
				0.380897
				0.375897
				0.377363
				0.366279
				0.377858
				0.35645
				0.394928
				0.356699
				0.361549
				0.343987
				0.351234
				0.328013
				-nan
				0.261386
				-nan
				0.963921
				nan
				-nan
				0.331997
				2.91099
				0.133572
				1.54708
				0.16976
				0.494186
				0.326581
				0.388426
				0.376945
				0.614466
				0.409176
				0.567297
				0.456397
				0.5097
				0.434496
				0.488934
				0.47868
				0.50374
				0.547979
				0.568705
				0.572084
				0.69677
				-nan
				0.605485
				0.600152
				0.633936
				0.617463
				0.867209
				0.629565
				0.878331
				0.629565
				0.89236
				0.617333
				0.878331
				0.598138
				0.866437
				0.391099
				0.670219
				0.488382
				0.593545
				0.602475
				0.579295
				0.669949
				0.536954
				0.577199
				0.584978
				0.565648
				0.432375
				0.445307
				0.295835
				0.302016
				0.221723
				0.136727
				0.278446
				0.173104
				0.376728
				0.117806
				0.484222
				-nan
				0.713421
				-nan
				2.25297
				-nan
				-nan
				2.52167
				0.320983
				0.341278
				0.539861
				0.364773
				0.328637
				0.346836
				0.336602
				0.371971
				0.360805
				0.373629
				0.364087
				0.377844
				0.369382
				0.384004
				0.377866
				0.393285
				0.388253
				0.403416
				0.39997
				0.422767
				0.412359
				0.306807
				0.431502
				0.419018
				0.409186
				0.398274
				0.474075
				0.400561
				0.473092
				0.400561
				0.47888
				0.398295
				0.473091
				0.412943
				0.473826
				0.413441
				0.448786
				0.394756
				0.428036
				0.404264
				0.424896
				0.391697
				0.404679
				0.385301
				0.387743
				0.378862
				0.377268
				0.376747
				0.369877
				0.380109
				0.364822
				0.397425
				0.361069
				0.366547
				0.352227
				0.292342
				0.330906
				-nan
				0.2757
				-nan
				1.06117
				nan
				-nan
				0.289549
				3.43412
				0.120612
				0.509449
				0.172032
				0.437057
				0.319685
				0.356005
				0.370839
				0.589461
				0.39781
				0.546285
				0.427207
				0.507959
				0.459894
				0.49065
				0.499297
				0.503764
				0.541813
				0.553886
				0.560358
				0.63352
				-nan
				0.581902
				0.418207
				0.609319
				0.59102
				0.665801
				0.604513
				0.862992
				0.604512
				0.881736
				0.590971
				0.862991
				0.420375
				0.66512
				0.370135
				0.637395
				0.591398
				0.58659
				0.579222
				0.569844
				0.532921
				0.525206
				0.511984
				0.554347
				0.452537
				0.421446
				0.380496
				0.298093
				0.300031
				0.229835
				0.155371
				0.265884
				0.17647
				0.342065
				0.30277
				0.429719
				-nan
				1.82814
				-nan
				4.34901
				-nan
				-nan
				1.09537
				1.88965
				1.12321
				0.506307
				0.530389
				0.325193
				0.504903
				0.3387
				0.480977
				0.353977
				0.457667
				0.362719
				0.432673
				0.37005
				0.404964
				0.377423
				0.374306
				0.385279
				0.339335
				0.394372
				0.296743
				0.405628
				0.270748
				0.412878
				0.250075
				0.410153
				0.192272
				0.442519
				0.134186
				0.467494
				0.134186
				0.47745
				0.192367
				0.467494
				0.244974
				0.442226
				0.292043
				0.430087
				0.319065
				0.424739
				0.347576
				0.414275
				0.377393
				0.398857
				0.405148
				0.385802
				0.432138
				0.376678
				0.458119
				0.37098
				0.48294
				0.366737
				0.506932
				0.362678
				0.529905
				0.343464
				0.555102
				0.328795
				2.65384
				0.266144
				-nan
				2.3081
			</DataArray>
			<DataArray type="Float64" Name="pressure" Format="ascii">
				103724
				3.96959
				nan
				48353.2
				-42745.3
				-8374.78
				9.3489
				6.98012
				8.1373
				6.33025
				7.01697
				6.20047
				6.55144
				5.97088
				6.53707
				5.82562
				5.97661
				5.60252
				6.48156
				5.37384
				6.86771
				4.97918
				6.90693
				4.95349
				1.61068
				5.0337
				8.13258
				6.98058
				8.00938
				7.44279
				7.93227
				7.1983
				7.93227
				7.0957
				8.00478
				7.1983
				8.10471
				7.42442
				11.1966
				8.78869
				10.008
				4.42164
				8.06281
				5.52738
				8.43961
				5.31696
				7.82155
				7.93531
				6.11276
				6.67582
				5.01414
				5.33756
				3.55727
				4.01723
				3.25944
				3.74191
				7.82315
				4.65555
				1516.36
				6.99851
				1068.73
				-4426.56
				247.212
				6.90932
				nan
				10.8143
				44219.2
				-8756.12
				-8882.15
				-3659.47
				4.5257
				5.48674
				4.63488
				5.65908
				3.92605
				5.28237
				4.44785
				5.18653
				4.25616
				5.24089
				4.14952
				5.21098
				4.10054
				5.18468
				3.9469
				5.0573
				4.76918
				5.2101
				3.14268
				5.00606
				5.10822
				5.35999
				5.14094
				5.76363
				5.09982
				5.78904
				5.09982
				5.78811
				5.14214
				5.78904
				5.05258
				5.75316
				4.09767
				5.51348
				6.17107
				7.01322
				5.31841
				6.56
				6.11561
				6.18578
				6.4604
				6.03027
				6.21458
				5.69367
				5.77688
				5.42813
				4.26568
				5.02837
				5.81595
				5.35337
				4.42465
				5.44634
				-223.544
				5.49973
				-38.2652
				332.605
				-2.8255
				14.7099
				nan
				-2687.62
				1202.56
				42.9437
				573.516
				923.702
				6.02593
				6.04262
				7.28199
				5.27719
				4.02907
				6.16987
				4.93912
				5.85952
				4.7457
				5.82171
				4.58953
				5.84439
				4.46176
				5.78316
				5.27613
				5.62736
				5.2723
				5.57746
				nan
				5.62205
				6.719
				5.97247
				6.07316
				7.28608
				6.01376
				7.19423
				6.01376
				7.17152
				6.07342
				7.19423
				6.82555
				7.29593
				8.2373
				7.67084
				5.79244
				6.04177
				5.55184
				6.24734
				5.78611
				6.24248
				5.97234
				6.51752
				5.78578
				6.08982
				5.53904
				5.65558
				4.49106
				5.34006
				5.72796
				4.53592
				5.8893
				5.57692
				7.88122
				5.97627
				18.0884
				7.16023
				-21.5711
				14.8289
				nan
				-4623.55
				92.2584
				-28.7887
				-25.7462
				235.108
				5.41377
				5.24926
				5.61636
				5.14324
				5.31182
				5.31557
				5.39204
				5.25062
				4.54039
				5.23965
				4.78771
				5.12805
				4.68503
				5.11937
				5.49537
				5.26247
				5.52326
				5.40161
				4.07232
				5.37826
				4.94864
				5.31764
				4.88795
				5.47178
				4.84885
				5.50432
				4.84885
				5.50576
				4.88777
				5.50432
				4.85431
				5.47347
				5.3353
				5.74838
				5.14542
				5.80866
				5.56355
				5.638
				5.89937
				5.61725
				5.69171
				5.59911
				5.60225
				5.4355
				5.49598
				5.33917
				5.43107
				5.279
				5.20777
				5.17134
				5.44315
				5.22826
				5.42437
				5.19193
				-14.9391
				5.43899
				2863.16
				25.5769
				nan
				1.53527e+10
				15.2849
				1.02745
				7.49812
				8.42421
				6.53566
				5.95322
				7.4576
				5.80727
				5.72027
				5.43525
				5.77913
				5.42764
				4.90727
				5.46286
				5.65608
				5.54412
				5.56659
				5.4929
				6.21815
				5.30478
				6.15833
				5.11295
				5.618
				5.30443
				6.51063
				5.99609
				6.28422
				6.69829
				6.29028
				6.69891
				6.29028
				6.71187
				6.28172
				6.6989
				6.42663
				6.68801
				5.17483
				6.86985
				5.32999
				5.75153
				6.23712
				5.87905
				5.84348
				6.00272
				5.68834
				5.96701
				5.49119
				5.68589
				5.25833
				5.34543
				5.11627
				4.98735
				4.4359
				4.59281
				6.52334
				5.64255
				6.70666
				5.88624
				100.156
				7.25937
				-714.882
				8.76266
				-nan
				-3.25967e+08
				2.52276
				4.88372
				4.98216
				8.01916
				5.35689
				5.23907
				5.49606
				5.19301
				5.25281
				5.1873
				5.28927
				5.15612
				5.31587
				5.16092
				5.3323
				5.18764
				5.35906
				5.21502
				5.39025
				5.26456
				5.46317
				5.29571
				3.9136
				5.42708
				5.51309
				5.28627
				4.81134
				5.57207
				4.86316
				5.28539
				4.86316
				5.28983
				4.81091
				5.28539
				5.44789
				5.56996
				5.24405
				5.45811
				5.303
				5.36942
				5.476
				5.3859
				5.39527
				5.3476
				5.40884
				5.29364
				5.37461
				5.25224
				5.34404
				5.21989
				5.34749
				5.20022
				5.18345
				5.13667
				5.37609
				5.19369
				5.23786
				5.19058
				5839.24
				5.31063
				2.99522e+07
				32.4309
				nan
				7.45298e+09
				-48.5003
				-22.6727
				6.44686
				5.20471
				6.33207
				5.7812
				7.27544
				5.73123
				5.61386
				5.38602
				5.65091
				5.3699
				5.68904
				5.43543
				5.73882
				5.44262
				5.8234
				5.39909
				5.94166
				5.3356
				6.31679
				5.24445
				5.43766
				5.36487
				4.45814
				5.90193
				6.25255
				6.55237
				6.20463
				6.62364
				6.20463
				6.64676
				6.25074
				6.62364
				4.46848
				6.54167
				5.19558
				6.59566
				5.37418
				5.78479
				6.08517
				5.87898
				5.62973
				5.9256
				5.82696
				5.94302
				5.55771
				5.64551
				5.28366
				5.31603
				5.102
				4.99463
				4.40127
				4.64563
				6.33748
				5.57614
				11.4621
				5.70062
				-94350.5
				4.18308
				-5.36965e+06
				-5829.78
				1.64758e+08
				-6.16258e+07
				29.6195
				21.5314
				1.76602
				9.69865
				5.16598
				5.06617
				5.09762
				5.06139
				5.08195
				5.02711
				5.03411
				5.03689
				4.9753
				5.05497
				4.91179
				5.07251
				4.84606
				5.0907
				4.78006
				5.11371
				4.70405
				5.13311
				4.79455
				5.15874
				4.68739
				5.14734
				4.63875
				5.24426
				4.60118
				5.33799
				4.60118
				5.35131
				4.63878
				5.33799
				4.66256
				5.24253
				4.72325
				5.22061
				4.75532
				5.22053
				4.77777
				5.23517
				4.8379
				5.1811
				4.90361
				5.12663
				4.97283
				5.08572
				5.04378
				5.05515
				5.11626
				5.0331
				5.17686
				5.01473
				5.16525
				5.02294
				5.07992
				5.03829
				221241
				5.60201
				-961630
				-8771.01
			</DataArray>
			<DataArray type="Float64" Name="velocity" NumberOfComponents="3" Format="ascii">
				219.999 127.99 0.0 
				1.46996 4.81536 0.0 
				nan nan 0.0 
				109.73 0.246489 0.0 
				64.356 1.57951 0.0 
				14.6474 53.9676 0.0 
				-0.64099 -0.955445 0.0 
				-2.18541 -1.67438 0.0 
				0.0724201 -1.11526 0.0 
				-1.09499 -2.52079 0.0 
				0.504878 -1.07908 0.0 
				-0.0396321 -2.16709 0.0 
				0.767175 -0.953718 0.0 
				0.532183 -1.69096 0.0 
				0.950096 -0.707963 0.0 
				1.01594 -1.34444 0.0 
				1.01921 -0.44358 0.0 
				1.4934 -0.694414 0.0 
				1.15378 -0.137246 0.0 
				1.23394 -0.185285 0.0 
				1.19339 0.396756 0.0 
				1.4591 0.365611 0.0 
				1.27305 0.689041 0.0 
				1.15079 1.19932 0.0 
				0.792644 -0.823183 0.0 
				1.31696 1.55538 0.0 
				0.845466 -0.312512 0.0 
				0.870099 -0.443458 0.0 
				0.80821 -0.200959 0.0 
				0.954886 -0.270944 0.0 
				0.798682 -0.0672228 0.0 
				0.947393 -0.129175 0.0 
				0.798682 0.067224 0.0 
				0.943639 6.38462e-09 0.0 
				0.807627 0.199195 0.0 
				0.947393 0.129175 0.0 
				0.842732 0.43038 0.0 
				0.951631 0.26911 0.0 
				0.965413 0.618754 0.0 
				1.06304 0.463149 0.0 
				1.1322 0.901491 0.0 
				0.409577 0.371305 0.0 
				1.17783 0.796158 0.0 
				0.486201 0.488845 0.0 
				1.09561 0.869327 0.0 
				0.584493 0.546717 0.0 
				1.27179 0.994794 0.0 
				0.977225 1.56915 0.0 
				1.11743 0.846383 0.0 
				0.737077 0.973206 0.0 
				0.951512 0.705476 0.0 
				0.684446 0.262604 0.0 
				0.733002 0.798112 0.0 
				0.300378 -0.61738 0.0 
				-0.181853 0.185017 0.0 
				-0.885409 -0.859402 0.0 
				-0.598969 0.609387 0.0 
				0.6743 0.531677 0.0 
				-7.82282 -8.57246 0.0 
				-2.13671 1.63383 0.0 
				1.28571 9.6112 0.0 
				0.7989 -0.374776 0.0 
				14.3035 5.5639 0.0 
				-2.05221 1.22204 0.0 
				nan nan 0.0 
				0.596273 1.87905 0.0 
				-22.5308 100.425 0.0 
				91.1829 -4.07592 0.0 
				89.6454 -4.02479 0.0 
				-44.0074 39.9614 0.0 
				1.10274 0.0796953 0.0 
				0.630895 -0.101587 0.0 
				1.00446 0.0119292 0.0 
				0.791109 -0.184865 0.0 
				1.1478 -0.0677799 0.0 
				0.89245 -0.210063 0.0 
				1.05539 0.0779394 0.0 
				0.9272 -0.189684 0.0 
				1.03437 0.0986508 0.0 
				0.96541 -0.186758 0.0 
				1.00775 0.121522 0.0 
				0.99164 -0.175437 0.0 
				0.96983 0.150363 0.0 
				1.01981 -0.162428 0.0 
				0.97332 0.247696 0.0 
				1.05697 -0.149342 0.0 
				1.0298 0.15036 0.0 
				1.05276 -0.114543 0.0 
				1.038 0.653111 0.0 
				1.02361 -0.164537 0.0 
				1.0231 0.0129678 0.0 
				1.0987 -0.25454 0.0 
				1.06502 -0.00904498 0.0 
				1.23661 -0.177719 0.0 
				1.05081 -0.00360995 0.0 
				1.27222 -0.0921981 0.0 
				1.05081 0.0036097 0.0 
				1.2846 2.20958e-08 0.0 
				1.06604 0.00870188 0.0 
				1.27222 0.0921979 0.0 
				1.01344 0.00849603 0.0 
				1.23663 0.177177 0.0 
				0.681276 0.165489 0.0 
				1.20742 0.305413 0.0 
				1.08348 0.242334 0.0 
				1.45316 0.519145 0.0 
				1.0285 0.017955 0.0 
				1.22494 0.571111 0.0 
				1.01791 0.276363 0.0 
				1.19696 0.457241 0.0 
				1.02829 0.370562 0.0 
				1.05983 0.377286 0.0 
				1.02319 0.254014 0.0 
				0.984897 0.24445 0.0 
				1.01429 0.130696 0.0 
				0.950138 0.121246 0.0 
				1.04357 -0.0920817 0.0 
				0.935228 -0.0184556 0.0 
				0.987608 0.0588704 0.0 
				1.0314 0.0785371 0.0 
				1.09034 -0.112574 0.0 
				0.764579 0.0656234 0.0 
				-4.27447 -35.6247 0.0 
				0.618387 0.1148 0.0 
				-20.479 -6.23934 0.0 
				-10.2655 1.64486 0.0 
				0.163386 0.244594 0.0 
				0.0964038 2.06678 0.0 
				nan nan 0.0 
				17.6811 1.21029 0.0 
				0.0569229 -0.281309 0.0 
				-9.59497 -22.9493 0.0 
				0.378042 -0.0437928 0.0 
				-7.25229 1.23666 0.0 
				0.691954 -0.312595 0.0 
				-1.17547 -1.45933 0.0 
				0.196162 -0.0166632 0.0 
				-0.797369 -1.11661 0.0 
				0.677432 1.73658 0.0 
				-0.227882 -1.2989 0.0 
				0.841016 0.623632 0.0 
				0.485851 -1.44224 0.0 
				0.990202 0.78718 0.0 
				0.73482 -1.16915 0.0 
				1.14078 0.917792 0.0 
				0.993511 -0.869268 0.0 
				1.30781 1.05142 0.0 
				1.24873 -0.515233 0.0 
				1.46429 0.633408 0.0 
				1.48116 -0.0864987 0.0 
				1.56898 0.274953 0.0 
				1.25075 0.590237 0.0 
				nan nan 0.0 
				1.85345 0.207511 0.0 
				1.1709 -0.277066 0.0 
				0.910579 -0.322395 0.0 
				1.60816 -0.224466 0.0 
				1.47306 -0.329065 0.0 
				1.64662 -0.0733981 0.0 
				1.50633 -0.165028 0.0 
				1.64662 0.0733981 0.0 
				1.52242 3.27555e-08 0.0 
				1.60932 0.225098 0.0 
				1.50633 0.165028 0.0 
				1.14365 0.385734 0.0 
				1.47412 0.330304 0.0 
				0.832307 0.447599 0.0 
				1.4881 0.52156 0.0 
				0.738315 0.694419 0.0 
				0.700176 0.559349 0.0 
				0.728075 0.533847 0.0 
				0.707345 0.703417 0.0 
				0.645813 0.633031 0.0 
				0.828669 0.721811 0.0 
				0.908416 1.52994 0.0 
				0.994233 1.27959 0.0 
				1.01765 1.50633 0.0 
				0.991599 0.871063 0.0 
				0.802021 1.01105 0.0 
				0.735278 0.397487 0.0 
				0.929691 -0.301343 0.0 
				0.465028 -0.150054 0.0 
				0.275715 0.328386 0.0 
				0.424071 -0.43446 0.0 
				0.676862 0.277056 0.0 
				-0.678333 1.12378 0.0 
				0.359938 0.147358 0.0 
				-1.10715 1.45387 0.0 
				1.63173 0.695203 0.0 
				-2.14929 1.15349 0.0 
				-0.393783 -0.337343 0.0 
				-0.488188 1.47746 0.0 
				nan nan 0.0 
				-0.661277 0.560885 0.0 
				-3.8181 -17.3831 0.0 
				-6.617 -17.7435 0.0 
				-6.72717 -17.9662 0.0 
				-5.94226 -6.4678 0.0 
				0.950697 -0.0412802 0.0 
				0.86297 -0.128473 0.0 
				0.920775 -0.1439 0.0 
				0.878359 -0.0860887 0.0 
				0.989922 -0.0106725 0.0 
				0.893231 -0.166915 0.0 
				0.997375 -0.0422917 0.0 
				0.931359 -0.157541 0.0 
				1.00752 0.0692946 0.0 
				0.989207 -0.168128 0.0 
				1.01776 0.0468772 0.0 
				0.997876 -0.145517 0.0 
				1.02554 0.0746971 0.0 
				1.02518 -0.144934 0.0 
				1.09106 -0.136373 0.0 
				1.03262 -0.155642 0.0 
				1.11158 -0.130786 0.0 
				1.12334 -0.161082 0.0 
				0.723141 0.0724501 0.0 
				1.10876 -0.0167755 0.0 
				1.01965 -0.0188538 0.0 
				1.04631 -0.0704033 0.0 
				0.969535 -0.000463047 0.0 
				1.24564 -0.150594 0.0 
				0.946599 9.62605e-05 0.0 
				1.29072 -0.0843599 0.0 
				0.946599 -9.63765e-05 0.0 
				1.30683 8.30907e-08 0.0 
				0.969252 0.000371509 0.0 
				1.29072 0.0843599 0.0 
				0.966764 0.0403939 0.0 
				1.24644 0.151487 0.0 
				1.06978 0.00872791 0.0 
				1.28395 0.201435 0.0 
				1.03734 -0.028998 0.0 
				1.24384 0.391568 0.0 
				1.09632 0.0981679 0.0 
				1.13904 0.304357 0.0 
				1.04866 0.20509 0.0 
				1.11107 0.264315 0.0 
				1.03327 0.138047 0.0 
				1.03334 0.218864 0.0 
				1.01333 0.10763 0.0 
				0.990918 0.157048 0.0 
				1.0053 0.0658234 0.0 
				0.96853 0.11691 0.0 
				1.00631 0.0407428 0.0 
				0.943569 0.0928022 0.0 
				1.04374 -0.0451249 0.0 
				0.946708 0.0455671 0.0 
				0.9625 0.0531602 0.0 
				0.910731 0.110441 0.0 
				0.939495 0.0455494 0.0 
				0.866708 0.13659 0.0 
				-1.9291 -2.27319 0.0 
				0.607891 0.368362 0.0 
				-0.10116 -3.12882 0.0 
				0.177152 2.90141 0.0 
				nan nan 0.0 
				-648.438 -3.2197 0.0 
				-0.21359 -0.453457 0.0 
				-4.79785 -1.08704 0.0 
				-0.273375 -0.186117 0.0 
				-4.2005 -2.37364 0.0 
				0.209043 -0.421319 0.0 
				-1.21663 -0.838953 0.0 
				0.474877 -0.7557 0.0 
				-0.571602 -0.986288 0.0 
				0.751837 -0.665964 0.0 
				0.384136 -1.5577 0.0 
				0.854608 -0.673082 0.0 
				0.58281 -1.36508 0.0 
				1.0052 0.539119 0.0 
				0.772057 -1.08593 0.0 
				1.11347 -0.204098 0.0 
				0.997158 -0.790995 0.0 
				1.23225 -0.0351493 0.0 
				1.21287 -0.456247 0.0 
				1.41547 -0.322513 0.0 
				1.42523 -0.15683 0.0 
				1.49879 -0.0380348 0.0 
				1.69879 0.505464 0.0 
				-2.38046 0.99448 0.0 
				1.27885 0.78517 0.0 
				1.09247 -0.26313 0.0 
				1.03099 -0.43504 0.0 
				1.1185 -0.196518 0.0 
				1.44068 -0.299532 0.0 
				1.1397 -0.0636818 0.0 
				1.44138 -0.152395 0.0 
				1.1397 0.0636818 0.0 
				1.46279 -4.90947e-08 0.0 
				1.11839 0.195679 0.0 
				1.44138 0.152395 0.0 
				1.07479 0.30917 0.0 
				1.4394 0.298096 0.0 
				0.453392 0.226316 0.0 
				1.14688 0.450969 0.0 
				0.81056 0.463182 0.0 
				0.765835 0.57522 0.0 
				1.3768 0.724901 0.0 
				0.919072 0.615116 0.0 
				1.26013 1.11134 0.0 
				0.869023 0.657657 0.0 
				1.15532 0.924958 0.0 
				0.987988 0.977266 0.0 
				1.02449 1.03928 0.0 
				0.996462 0.603144 0.0 
				0.849974 0.789249 0.0 
				0.777878 0.207637 0.0 
				0.663899 0.440118 0.0 
				0.566521 -0.210367 0.0 
				0.332337 0.117412 0.0 
				0.317487 -0.630852 0.0 
				0.224034 0.423968 0.0 
				-0.559218 0.954019 0.0 
				-0.0122967 0.287845 0.0 
				-1.17364 0.851886 0.0 
				1.06989 0.372574 0.0 
				-2.41571 0.93054 0.0 
				-6.82838 -7.08206 0.0 
				-1.22754 7.24506 0.0 
				-nan -nan 0.0 
				0.0482976 -3.21928 0.0 
				3.82728 0.434513 0.0 
				0.7937 0.252142 0.0 
				0.847949 0.255535 0.0 
				1.75945 -0.0742177 0.0 
				0.969623 -0.0341041 0.0 
				0.876449 -0.0677004 0.0 
				0.921988 -0.105672 0.0 
				0.894273 -0.0735967 0.0 
				0.98753 -0.000264849 0.0 
				0.949902 -0.121068 0.0 
				0.992439 -0.0298827 0.0 
				0.960538 -0.0932955 0.0 
				1.00312 -0.0559029 0.0 
				0.973383 -0.101468 0.0 
				1.01827 -0.0777452 0.0 
				0.994335 -0.117712 0.0 
				1.0419 -0.0958623 0.0 
				1.02106 -0.126023 0.0 
				1.06795 -0.109792 0.0 
				1.05235 -0.131709 0.0 
				1.12176 -0.113137 0.0 
				1.08458 -0.138041 0.0 
				0.710632 0.0582488 0.0 
				1.14983 -0.044384 0.0 
				1.12024 0.0328545 0.0 
				1.06229 -0.171184 0.0 
				0.97075 -0.0404745 0.0 
				1.24417 -0.0643734 0.0 
				0.973903 -0.00354151 0.0 
				1.2018 -0.0583276 0.0 
				0.973903 0.00354139 0.0 
				1.21593 3.47234e-08 0.0 
				0.9708 0.0401937 0.0 
				1.2018 0.0583277 0.0 
				1.10328 -0.0195848 0.0 
				1.24369 0.0636323 0.0 
				1.07778 0.0244303 0.0 
				1.17063 0.167758 0.0 
				1.04574 0.0217703 0.0 
				1.11092 0.205942 0.0 
				1.07239 0.097361 0.0 
				1.11886 0.160684 0.0 
				1.03808 0.0812775 0.0 
				1.06405 0.160633 0.0 
				1.02225 0.0920051 0.0 
				1.02186 0.130307 0.0 
				1.00595 0.072379 0.0 
				0.996625 0.100885 0.0 
				1.00085 0.0510131 0.0 
				0.978763 0.0749303 0.0 
				1.01022 0.041672 0.0 
				0.96661 0.0525238 0.0 
				1.05097 -0.0365078 0.0 
				0.956536 0.00954351 0.0 
				0.974569 0.0396008 0.0 
				0.934597 0.0821451 0.0 
				0.765065 0.156988 0.0 
				0.880184 0.0800597 0.0 
				-1.83009 1.28103 0.0 
				0.633796 0.392091 0.0 
				0.570628 -7.13188 0.0 
				0.0423183 3.2001 0.0 
				nan nan 0.0 
				-543.601 -37.7966 0.0 
				0.171308 0.179982 0.0 
				3.16926 4.74055 0.0 
				0.196135 -0.270438 0.0 
				-1.36626 -0.602215 0.0 
				0.291413 -0.37483 0.0 
				-1.03859 -0.78847 0.0 
				0.523507 -0.698561 0.0 
				-0.478146 -0.92413 0.0 
				0.77948 -0.606356 0.0 
				0.4184 -1.48419 0.0 
				0.868835 -0.601069 0.0 
				0.608088 -1.29497 0.0 
				0.971381 -0.5795 0.0 
				0.799932 -1.06202 0.0 
				1.09299 -0.528147 0.0 
				0.998867 -0.795986 0.0 
				1.23513 -0.447623 0.0 
				1.19728 -0.499237 0.0 