<VTKFile type="UnstructuredGrid" version="0.1" byte_order="LittleEndian">
<UnstructuredGrid>
	<Piece NumberOfPoints="80" NumberOfCells="128">
		<PointData Scalars="density" Vectors="velocity">
			<DataArray type="Float64" Name="density" Format="ascii">
				0.25247
				0.248144
				0.235968
				0.219886
				0.213844
				0.226216
				0.24643
				0.26226
				0.268043
				0.26226
				0.24643
				0.226216
				0.213844
				0.219886
				0.235968
				0.248144
				0.251672
				0.249666
				0.244793
				0.240478
				0.241253
				0.246649
				0.25248
				0.255897
				0.255897
				0.25248
				0.246649
				0.241253
				0.240478
				0.244793
				0.249666
				0.251672
				0.24937
				0.249841
				0.249774
				0.249042
				0.248783
				0.24931
				0.250233
				0.250966
				0.25123
				0.250966
				0.250233
				0.24931
				0.248783
				0.249042
				0.249774
				0.249841
				0.249793
				0.25002
				0.249965
				0.249903
				0.249963
				0.250092
				0.250211
				0.250277
				0.250277
				0.250211
				0.250092
				0.249963
				0.249903
				0.249965
				0.25002
				0.249793
				0.249894
				0.250015
				0.250041
				0.249984
				0.249993
				0.250067
				0.250141
				0.25019
				0.250207
				0.25019
				0.250141
				0.250067
				0.249993
				0.249984
				0.250041
				0.250015
			</DataArray>
			<DataArray type="Float64" Name="mach-number" Format="ascii">
				0.118078
				0.229532
				0.414917
				0.582738
				0.652256
				0.57527
				0.416969
				0.244425
				0.140826
				0.244425
				0.416968
				0.57527
				0.652255
				0.582738
				0.414917
				0.229532
				0.270195
				0.343573
				0.410788
				0.454623
				0.452863
				0.406137
				0.344672
				0.301867
				0.301867
				0.344672
				0.406137
				0.452863
				0.454623
				0.410788
				0.343573
				0.270195
				0.342193
				0.361896
				0.382037
				0.390722
				0.393317
				0.387331
				0.376983
				0.368576
				0.365506
				0.368576
				0.376982
				0.387331
				0.393317
				0.390722
				0.382037
				0.361896
				0.372234
				0.380281
				0.381677
				0.381917
				0.381237
				0.379845
				0.378545
				0.377827
				0.377827
				0.378545
				0.379845
				0.381237
				0.381917
				0.381677
				0.380281
				0.372234
				0.373576
				0.377846
				0.381199
				0.381053
				0.38081
				0.380105
				0.379358
				0.378841
				0.378663
				0.378841
				0.379358
				0.380105
				0.38081
				0.381053
				0.381199
				0.377846
			</DataArray>
			<DataArray type="Float64" Name="pressure" Format="ascii">
				1.26469
				1.23864
				1.15562
				1.04566
				1.00374
				1.08287
				1.2169
				1.32565
				1.36627
				1.32565
				1.2169
				1.08287
				1.00374
				1.04566
				1.15562
				1.23864
				1.26099
				1.24279
				1.20679
				1.17663
				1.18062
				1.2162
				1.25588
				1.27957
				1.27957
				1.25588
				1.2162
				1.18062
				1.17663
				1.20679
				1.24279
				1.26099
				1.24078
				1.23994
				1.23575
				1.23024
				1.22832
				1.23194
				1.2383
				1.24337
				1.24519
				1.24337
				1.2383
				1.23194
				1.22832
				1.23024
				1.23575
				1.23994
				1.23709
				1.23682
				1.23627
				1.23594
				1.23635
				1.23726
				1.23809
				1.23855
				1.23855
				1.23809
				1.23726
				1.23635
				1.23594
				1.23627
				1.23682
				1.23709
				1.23726
				1.23717
				1.23672
				1.2365
				1.23659
				1.2371
				1.23761
				1.23796
				1.23807
				1.23796
				1.23761
				1.2371
				1.23659
				1.2365
				1.23672
				1.23717
			</DataArray>
			<DataArray type="Float64" Name="velocity" NumberOfComponents="3" Format="ascii">
				0.312693 -1.03029e-06 0.0 
				0.514351 -0.321899 0.0 
				0.971508 -0.486341 0.0 
				1.45836 -0.366074 0.0 
				1.67103 0.0579399 0.0 
				1.41079 0.47695 0.0 
				0.926222 0.586593 0.0 
				0.526337 0.381776 0.0 
				0.376195 4.06457e-07 0.0 
				0.526337 -0.381775 0.0 
				0.926221 -0.586593 0.0 
				1.41079 -0.476949 0.0 
				1.67102 -0.0579399 0.0 
				1.45836 0.366073 0.0 
				0.971507 0.48634 0.0 
				0.514351 0.321898 0.0 
				0.71236 -0.068185 0.0 
				0.895031 -0.146796 0.0 
				1.06914 -0.146969 0.0 
				1.18888 -0.0483089 0.0 
				1.18057 0.106388 0.0 
				1.04819 0.19992 0.0 
				0.891894 0.178388 0.0 
				0.795654 0.069585 0.0 
				0.795654 -0.0695845 0.0 
				0.891894 -0.178388 0.0 
				1.04819 -0.19992 0.0 
				1.18057 -0.106387 0.0 
				1.18888 0.0483087 0.0 
				1.06914 0.146969 0.0 
				0.89503 0.146796 0.0 
				0.71236 0.0681843 0.0 
				0.903148 -2.1149e-07 0.0 
				0.953645 -0.0233231 0.0 
				1.00522 -0.0216327 0.0 
				1.02745 -0.0117767 0.0 
				1.03401 0.0117475 0.0 
				1.01825 0.0321443 0.0 
				0.991635 0.0352644 0.0 
				0.97045 0.0217948 0.0 
				0.96281 9.88653e-08 0.0 
				0.970449 -0.0217946 0.0 
				0.991635 -0.0352643 0.0 
				1.01825 -0.0321443 0.0 
				1.03401 -0.0117475 0.0 
				1.02745 0.0117765 0.0 
				1.00522 0.0216324 0.0 
				0.953645 0.0233228 0.0 
				0.980142 -0.00210178 0.0 
				1.00077 0.000385872 0.0 
				1.00433 0.000495217 0.0 
				1.00495 0.00197114 0.0 
				1.0032 0.00413082 0.0 
				0.999643 0.00522501 0.0 
				0.996326 0.00405562 0.0 
				0.994496 0.00149175 0.0 
				0.994496 -0.00149171 0.0 
				0.996325 -0.00405559 0.0 
				0.999643 -0.005225 0.0 
				1.0032 -0.00413084 0.0 
				1.00495 -0.00197121 0.0 
				1.00433 -0.000495335 0.0 
				1.00077 -0.000386004 0.0 
				0.980142 0.00210163 0.0 
				0.983547 -6.11187e-08 0.0 
				0.99451 0.000373757 0.0 
				1.0031 0.00211286 0.0 
				1.00274 0.0016218 0.0 
				1.00212 0.00213264 0.0 
				1.00032 0.00269192 0.0 
				0.998417 0.00255224 0.0 
				0.997099 0.00148326 0.0 
				0.996646 1.05268e-08 0.0 
				0.997099 -0.00148324 0.0 
				0.998417 -0.00255223 0.0 
				1.00032 -0.00269194 0.0 
				1.00212 -0.00213268 0.0 
				1.00274 -0.00162188 0.0 
				1.0031 -0.00211297 0.0 
				0.99451 -0.000373874 0.0 
			</DataArray>
		</PointData>
		<Points>
		<DataArray type="Float64" NumberOfComponents="3" Format="ascii">
			0.5 0 0.0 
			0.46194 0.191342 0.0 
			0.353553 0.353553 0.0 
			0.191342 0.46194 0.0 
			-2.18557e-08 0.5 0.0 
			-0.191342 0.46194 0.0 
			-0.353553 0.353553 0.0 
			-0.46194 0.191342 0.0 
			-0.5 -4.37114e-08 0.0 
			-0.46194 -0.191342 0.0 
			-0.353553 -0.353553 0.0 
			-0.191342 -0.46194 0.0 
			6.55671e-08 -0.5 0.0 
			0.191342 -0.46194 0.0 
			0.353553 -0.353553 0.0 
			0.46194 -0.191342 0.0 
			0.884503 0.175939 0.0 
			0.749846 0.501031 0.0 
			0.501031 0.749846 0.0 
			0.175939 0.884503 0.0 
			-0.175939 0.884503 0.0 
			-0.501031 0.749846 0.0 
			-0.749846 0.501031 0.0 
			-0.884503 0.175939 0.0 
			-0.884503 -0.175939 0.0 
			-0.749846 -0.501031 0.0 
			-0.501031 -0.749846 0.0 
			-0.175939 -0.884503 0.0 
			0.175939 -0.884503 0.0 
			0.501031 -0.749846 0.0 
			0.749846 -0.501031 0.0 
			0.884503 -0.175938 0.0 
			2.20148 0 0.0 
			2.0339 0.842468 0.0 
			1.55668 1.55668 0.0 
			0.842468 2.0339 0.0 
			-9.62295e-08 2.20148 0.0 
			-0.842468 2.0339 0.0 
			-1.55668 1.55668 0.0 
			-2.0339 0.842468 0.0 
			-2.20148 -1.92459e-07 0.0 
			-2.0339 -0.842468 0.0 
			-1.55668 -1.55668 0.0 
			-0.842468 -2.0339 0.0 
			2.88689e-07 -2.20148 0.0 
			0.842468 -2.0339 0.0 
			1.55668 -1.55668 0.0 
			2.0339 -0.842468 0.0 
			6.28184 1.24954 0.0 
			5.32549 3.55838 0.0 
			3.55838 5.32549 0.0 
			1.24954 6.28184 0.0 
			-1.24954 6.28184 0.0 
			-3.55838 5.32549 0.0 
			-5.32549 3.55838 0.0 
			-6.28184 1.24954 0.0 
			-6.28184 -1.24954 0.0 
			-5.32549 -3.55838 0.0 
			-3.55838 -5.32549 0.0 
			-1.24954 -6.28184 0.0 
			1.24954 -6.28184 0.0 
			3.55838 -5.32549 0.0 
			5.32549 -3.55838 0.0 
			6.28184 -1.24953 0.0 
			20.0001 0 0.0 
			18.4777 7.6537 0.0 
			14.1422 14.1422 0.0 
			7.6537 18.4777 0.0 
			-8.74231e-07 20.0001 0.0 
			-7.6537 18.4777 0.0 
			-14.1422 14.1422 0.0 
			-18.4777 7.65369 0.0 
			-20.0001 -1.74846e-06 0.0 
			-18.4777 -7.6537 0.0 
			-14.1422 -14.1422 0.0 
			-7.65369 -18.4777 0.0 
			2.62269e-06 -20.0001 0.0 
			7.6537 -18.4777 0.0 
			14.1422 -14.1422 0.0 
			18.4777 -7.65369 0.0 
		</DataArray>
		</Points>
		<Cells>
			<DataArray type="UInt32" Name="connectivity" Format="ascii">
				0 16 1 
				0 31 16 
				1 17 2 
				1 16 17 
				2 18 3 
				2 17 18 
				3 19 4 
				3 18 19 
				4 20 5 
				4 19 20 
				5 21 6 
				5 20 21 
				6 22 7 
				6 21 22 
				7 23 8 
				7 22 23 
				8 24 9 
				8 23 24 
				9 25 10 
				9 24 25 
				10 26 11 
				10 25 26 
				11 27 12 
				11 26 27 
				12 28 13 
				12 27 28 
				13 29 14 
				13 28 29 
				14 30 15 
				14 29 30 
				15 31 0 
				15 30 31 
				16 32 33 
				16 31 32 
				17 33 34 
				17 16 33 
				18 34 35 
				18 17 34 
				19 35 36 
				19 18 35 
				20 36 37 
				20 19 36 
				21 37 38 
				21 20 37 
				22 38 39 
				22 21 38 
				23 39 40 
				23 22 39 
				24 40 41 
				24 23 40 
				25 41 42 
				25 24 41 
				26 42 43 
				26 25 42 
				27 43 44 
				27 26 43 
				28 44 45 
				28 27 44 
				29 45 46 
				29 28 45 
				30 46 47 
				30 29 46 
				31 47 32 
				31 30 47 
				32 48 33 
				32 63 48 
				33 49 34 
				33 48 49 
				34 50 35 
				34 49 50 
				35 51 36 
				35 50 51 
				36 52 37 
				36 51 52 
				37 53 38 
				37 52 53 
				38 54 39 
				38 53 54 
				39 55 40 
				39 54 55 
				40 56 41 
				40 55 56 
				41 57 42 
				41 56 57 
				42 58 43 
				42 57 58 
				43 59 44 
				43 58 59 
				44 60 45 
				44 59 60 
				45 61 46 
				45 60 61 
				46 62 47 
				46 61 62 
				47 63 32 
				47 62 63 
				48 64 65 
				48 63 64 
				49 65 66 
				49 48 65 
				50 66 67 
				50 49 66 
				51 67 68 
				51 50 67 
				52 68 69 
				52 51 68 
				53 69 70 
				53 52 69 
				54 70 71 
				54 53 70 
				55 71 72 
				55 54 71 
				56 72 73 
				56 55 72 
				57 73 74 
				57 56 73 
				58 74 75 
				58 57 74 
				59 75 76 
				59 58 75 
				60 76 77 
				60 59 76 
				61 77 78 
				61 60 77 
				62 78 79 
				62 61 78 
				63 79 64 
				63 62 79 
			</DataArray>
			<DataArray type="UInt32" Name="offsets" Format="ascii">
				3
				6
				9
				12
				15
				18
				21
				24
				27
				30
				33
				36
				39
				42
				45
				48
				51
				54
				57
				60
				63
				66
				69
				72
				75
				78
				81
				84
				87
				90
				93
				96
				99
				102
				105
				108
				111
				114
				117
				120
				123
				126
				129
				132
				135
				138
				141
				144
				147
				150
				153
				156
				159
				162
				165
				168
				171
				174
				177
				180
				183
				186
				189
				192
				195
				198
				201
				204
				207
				210
				213
				216
				219
				222
				225
				228
				231
				234
				237
				240
				243
				246
				249
				252
				255
				258
				261
				264
				267
				270
				273
				276
				279
				282
				285
				288
				291
				294
				297
				300
				303
				306
				309
				312
				315
				318
				321
				324
				327
				330
				333
				336
				339
				342
				345
				348
				351
				354
				357
				360
				363
				366
				369
				372
				375
				378
				381
				384
			</DataArray>
			<DataArray type="Int32" Name="types" Format="ascii">
				5
				5
				5
				5
				5
				5
				5
				5
				5
				5
				5
				5
				5
				5
				5
				5
				5
				5
				5
				5
				5
				5
				5
				5
				5
				5
				5
				5
				5
				5
				5
				5
				5
				5
				5
				5
				5
				5
				5
				5
				5
				5
				5
				5
				5
				5
				5
				5
				5
				5
				5
				5
				5
				5
				5
				5
				5
				5
				5
				5
				5
				5
				5
				5
				5
				5
				5
				5
				5
				5
				5
				5
				5
				5
				5
				5
				5
				5
				5
				5
				5
				5
				5
				5
				5
				5
				5
				5
				5
				5
				5
				5
				5
				5
				5
				5
				5
				5
				5
				5
				5
				5
				5
				5
				5
				5
				5
				5
				5
				5
				5
				5
				5
				5
				5
				5
				5
				5
				5
				5
				5
				5
				5
				5
				5
				5
				5
				5
			</DataArray>
		</Cells>
	</Piece>
</UnstructuredGrid>
</VTKFile>