<VTKFile type="UnstructuredGrid" version="0.1" byte_order="LittleEndian">
<UnstructuredGrid>
	<Piece NumberOfPoints="288" NumberOfCells="512">
		<CellData Scalars="density" Vectors="velocity">
			<DataArray type="Float64" Name="density" Format="ascii">
				1.03124
				1.03219
				1.02551
				1.02892
				1.00555
				1.02091
				0.96985
				1.00184
				0.920515
				0.968911
				0.864398
				0.925375
				0.812446
				0.879859
				0.779449
				0.844587
				0.779937
				0.832323
				0.813146
				0.847487
				0.865084
				0.881912
				0.922908
				0.92478
				0.97764
				0.968271
				1.02317
				1.00739
				1.05661
				1.03844
				1.07759
				1.05621
				1.0776
				1.06278
				1.05667
				1.05626
				1.02331
				1.03854
				0.977858
				1.00753
				0.923201
				0.968466
				0.865456
				0.925036
				0.813596
				0.88223
				0.780443
				0.847865
				0.779938
				0.832729
				0.812863
				0.844968
				0.864718
				0.88018
				0.920697
				0.925603
				0.969892
				0.969012
				1.00559
				1.00185
				1.02606
				1.02101
				1.03687
				1.02855
				1.02478
				1.02531
				1.02371
				1.02836
				1.01589
				1.0208
				1.00078
				1.00507
				0.981247
				0.985068
				0.960196
				0.961821
				0.941147
				0.937072
				0.929089
				0.91566
				0.92883
				0.905579
				0.940955
				0.912418
				0.961253
				0.933649
				0.984398
				0.961971
				1.00633
				0.990945
				1.02442
				1.01653
				1.03707
				1.03639
				1.04376
				1.04826
				1.04377
				1.04798
				1.03711
				1.04829
				1.02449
				1.03644
				1.00643
				1.01663
				0.98453
				0.991085
				0.961422
				0.962157
				0.941159
				0.933883
				0.929054
				0.912691
				0.929304
				0.905857
				0.941328
				0.915897
				0.960342
				0.937252
				0.981393
				0.961986
				1.00098
				0.985327
				1.01615
				1.00555
				1.02385
				1.02128
				1.02458
				1.0274
				1.01571
				1.01618
				1.01755
				1.01693
				1.01142
				1.01651
				1.0012
				1.0092
				0.987727
				0.99936
				0.972972
				0.988362
				0.960056
				0.977367
				0.952608
				0.968595
				0.953149
				0.964674
				0.961673
				0.967039
				0.975646
				0.974828
				0.991722
				0.985711
				1.00708
				0.997201
				1.01979
				1.00744
				1.02859
				1.01533
				1.03257
				1.0201
				1.03258
				1.0216
				1.02862
				1.02012
				1.01985
				1.01536
				1.00716
				1.0075
				0.991825
				0.997278
				0.975775
				0.985808
				0.961824
				0.974944
				0.953315
				0.96717
				0.952776
				0.964813
				0.960215
				0.96873
				0.973105
				0.977488
				0.987795
				0.988454
				1.00113
				0.999412
				1.01119
				1.0092
				1.01757
				1.01634
				1.01649
				1.01549
				1.00456
				0.999212
				1.00656
				1.00775
				1.00442
				1.00617
				1.00113
				1.00243
				0.997281
				0.99763
				0.993329
				0.992646
				0.990062
				0.98828
				0.988329
				0.985439
				0.988713
				0.985006
				0.991149
				0.987301
				0.995011
				0.991809
				0.999426
				0.997479
				1.00362
				1.00319
				1.00707
				1.00808
				1.00949
				1.01164
				1.0108
				1.01369
				1.0108
				1.01374
				1.00951
				1.0137
				1.00709
				1.01167
				1.00366
				1.00811
				0.999473
				1.00324
				0.995067
				0.997539
				0.991214
				0.991881
				0.988783
				0.987382
				0.9884
				0.985091
				0.990131
				0.985523
				0.993398
				0.988363
				0.997357
				0.992742
				1.00124
				0.997778
				1.00459
				1.00268
				1.0068
				1.00644
				1.00438
				1.00765
				1.00149
				1.00209
				1.00446
				1.00268
				1.00273
				1.00328
				1.00073
				1.00207
				0.998403
				1.00039
				0.996007
				0.998542
				0.993994
				0.996841
				0.9929
				0.995577
				0.993083
				0.995036
				0.994545
				0.995393
				0.996903
				0.996566
				0.999617
				0.998242
				1.0022
				1.00003
				1.00434
				1.00162
				1.00586
				1.0028
				1.00664
				1.00347
				1.00664
				1.00366
				1.00587
				1.00348
				1.00436
				1.00282
				1.00223
				1.00164
				0.999654
				1.00006
				0.996948
				0.998276
				0.994596
				0.996607
				0.993138
				0.995438
				0.992957
				0.995084
				0.99405
				0.995625
				0.996055
				0.996886
				0.998433
				0.998581
				1.00073
				1.00042
				1.00268
				1.00208
				1.00449
				1.00323
				1.00081
				1.00227
				0.999638
				0.996111
				1.00078
				1.00167
				1.00047
				1.00053
				1
				1.0001
				0.999501
				0.999469
				0.999015
				0.998815
				0.998641
				0.998295
				0.998488
				0.998055
				0.998629
				0.998179
				0.999037
				0.998652
				0.999621
				0.999375
				1.00026
				1.00021
				1.00086
				1.00101
				1.00135
				1.00167
				1.00169
				1.00213
				1.00188
				1.00237
				1.00188
				1.00239
				1.0017
				1.00237
				1.00136
				1.00214
				1.00087
				1.00168
				1.00028
				1.00103
				0.999642
				1.00023
				0.999061
				0.999401
				0.998654
				0.99868
				0.998514
				0.998208
				0.998666
				0.998085
				0.99904
				0.998325
				0.999526
				0.998847
				1.00003
				0.999508
				1.00051
				1.00016
				1.00082
				1.00058
				0.999411
				1.00175
				0.999647
				0.999877
				1.00066
				1.00007
				1.00035
				1.00035
				1.0001
				1.00021
				0.999821
				1.00004
				0.999544
				0.999857
				0.99932
				0.999681
				0.999205
				0.999559
				0.999246
				0.999521
				0.999446
				0.999583
				0.999764
				0.999738
				1.00013
				0.999952
				1.00048
				1.00018
				1.00078
				1.00038
				1.00099
				1.00052
				1.00111
				1.0006
				1.00112
				1.00061
				1.001
				1.0006
				1.00079
				1.00053
				1.00049
				1.00039
				1.00014
				1.00019
				0.99978
				0.999965
				0.999464
				0.999752
				0.999265
				0.999598
				0.999225
				0.999537
				0.999339
				0.999576
				0.999563
				0.999697
				0.999836
				0.999871
				1.00011
				1.00006
				1.00035
				1.00022
				1.00068
				1.00035
				0.999053
				0.999976
				0.999578
				0.99866
				1.00004
				1.00038
				1.00002
				0.999911
				0.999982
				0.999913
				0.999934
				0.999874
				0.999891
				0.999829
				0.999868
				0.9998
				0.999881
				0.999806
				0.999938
				0.99986
				1.00003
				0.999964
				1.00015
				1.0001
				1.00027
				1.00025
				1.00037
				1.00038
				1.00045
				1.00048
				1.00051
				1.00055
				1.00054
				1.00058
				1.00054
				1.00058
				1.00051
				1.00058
				1.00045
				1.00055
				1.00037
				1.00049
				1.00027
				1.00039
				1.00016
				1.00026
				1.00004
				1.00011
				0.999949
				0.999975
				0.999892
				0.999872
				0.999878
				0.999817
				0.999899
				0.999808
				0.99994
				0.999835
				0.999985
				0.999876
				1.00002
				0.999912
				1.00003
				0.999907
				0.999375
				1.00048
			</DataArray>
			<DataArray type="Float64" Name="mach-number" Format="ascii">
				0.0556882
				0.0707103
				0.140702
				0.115391
				0.251746
				0.208537
				0.374903
				0.316312
				0.501284
				0.42736
				0.62164
				0.533823
				0.723694
				0.626718
				0.787661
				0.693299
				0.791047
				0.718109
				0.73618
				0.695143
				0.646395
				0.635322
				0.539881
				0.553052
				0.426312
				0.458267
				0.310709
				0.357118
				0.195222
				0.255125
				0.0919963
				0.164584
				0.0917099
				0.150388
				0.194796
				0.164234
				0.310234
				0.254723
				0.425785
				0.356681
				0.539287
				0.457785
				0.645709
				0.552514
				0.735377
				0.634716
				0.790151
				0.694469
				0.786788
				0.717408
				0.722938
				0.692644
				0.621034
				0.626144
				0.500931
				0.533352
				0.375023
				0.427041
				0.252591
				0.316227
				0.143091
				0.2089
				0.0594165
				0.119312
				0.186521
				0.136337
				0.260058
				0.193572
				0.324436
				0.273018
				0.381681
				0.347285
				0.435578
				0.415224
				0.486774
				0.478568
				0.530598
				0.536678
				0.557613
				0.582518
				0.558393
				0.60333
				0.531616
				0.589878
				0.48473
				0.5459
				0.427137
				0.482876
				0.366559
				0.411072
				0.309538
				0.33753
				0.263699
				0.26857
				0.239711
				0.215265
				0.23965
				0.230306
				0.263535
				0.215041
				0.309308
				0.268314
				0.366271
				0.337221
				0.426792
				0.410703
				0.484328
				0.482443
				0.53116
				0.5454
				0.557906
				0.589324
				0.557146
				0.602776
				0.530201
				0.58204
				0.486451
				0.5363
				0.435242
				0.478194
				0.381128
				0.414552
				0.323442
				0.345878
				0.258563
				0.270554
				0.181765
				0.196788
				0.235211
				0.237537
				0.299888
				0.296283
				0.3361
				0.331502
				0.368196
				0.355111
				0.403984
				0.381571
				0.440964
				0.411363
				0.472219
				0.439345
				0.490398
				0.459546
				0.490672
				0.466999
				0.472956
				0.459652
				0.441691
				0.439648
				0.403134
				0.411704
				0.363264
				0.381011
				0.327383
				0.352189
				0.30027
				0.329043
				0.282152
				0.314055
				0.282122
				0.313787
				0.300169
				0.313996
				0.32722
				0.328935
				0.36305
				0.352032
				0.402873
				0.380809
				0.441386
				0.411461
				0.472613
				0.43937
				0.490306
				0.459347
				0.490028
				0.466681
				0.471864
				0.459228
				0.440668
				0.43904
				0.403867
				0.411104
				0.368485
				0.381441
				0.336979
				0.355243
				0.300429
				0.332075
				0.227482
				0.297703
				0.326828
				0.277622
				0.36012
				0.351198
				0.368535
				0.359848
				0.379343
				0.371827
				0.390969
				0.386309
				0.401384
				0.401138
				0.4092
				0.413604
				0.41291
				0.421603
				0.411312
				0.423325
				0.404481
				0.418066
				0.393895
				0.406865
				0.381729
				0.392118
				0.370058
				0.376624
				0.360402
				0.362796
				0.353665
				0.352283
				0.349914
				0.346229
				0.349898
				0.346037
				0.353618
				0.346193
				0.360325
				0.352212
				0.369951
				0.362689
				0.381595
				0.376483
				0.393735
				0.391946
				0.4043
				0.406666
				0.411118
				0.417848
				0.412714
				0.423099
				0.409008
				0.421379
				0.40119
				0.413378
				0.390735
				0.400866
				0.379011
				0.385894
				0.368075
				0.371175
				0.359929
				0.358885
				0.323344
				0.353511
				0.342729
				0.336878
				0.368429
				0.367286
				0.372537
				0.372922
				0.37842
				0.376944
				0.384691
				0.381185
				0.390871
				0.385623
				0.396136
				0.389972
				0.399161
				0.393239
				0.398924
				0.394411
				0.395338
				0.393035
				0.389294
				0.389459
				0.382142
				0.384586
				0.375159
				0.379449
				0.369275
				0.374893
				0.365049
				0.371485
				0.362304
				0.36956
				0.362292
				0.369491
				0.365015
				0.369541
				0.369218
				0.371447
				0.375081
				0.374837
				0.382044
				0.379374
				0.389177
				0.384495
				0.395206
				0.389353
				0.398781
				0.392918
				0.399013
				0.394287
				0.395992
				0.393114
				0.390747
				0.389853
				0.384611
				0.385523
				0.378415
				0.381118
				0.372652
				0.376917
				0.368798
				0.372969
				0.338156
				0.36704
				0.36889
				0.343644
				0.379221
				0.383792
				0.379896
				0.378299
				0.380951
				0.380531
				0.382148
				0.382063
				0.38335
				0.383757
				0.384182
				0.385235
				0.384393
				0.386031
				0.383887
				0.38589
				0.382746
				0.384827
				0.381196
				0.383069
				0.379532
				0.380972
				0.378019
				0.378915
				0.376827
				0.377203
				0.376017
				0.376032
				0.375489
				0.375513
				0.375484
				0.375593
				0.376001
				0.375501
				0.3768
				0.376007
				0.377983
				0.377165
				0.379485
				0.378865
				0.38114
				0.380911
				0.382683
				0.382998
				0.38382
				0.384749
				0.384324
				0.385809
				0.384114
				0.385949
				0.383282
				0.385153
				0.382076
				0.383672
				0.380871
				0.381964
				0.379789
				0.380404
				0.379236
				0.377944
				0.367125
				0.384943
				0.372453
				0.369032
				0.37949
				0.378934
				0.380007
				0.38028
				0.380427
				0.38034
				0.381104
				0.380729
				0.381844
				0.381233
				0.382465
				0.381713
				0.382797
				0.382057
				0.382711
				0.382146
				0.382183
				0.381918
				0.381327
				0.381411
				0.380325
				0.380742
				0.379357
				0.380048
				0.37855
				0.379442
				0.377993
				0.379014
				0.37757
				0.378835
				0.377566
				0.378891
				0.377981
				0.378829
				0.37853
				0.379002
				0.37933
				0.379423
				0.380292
				0.380023
				0.381287
				0.380712
				0.382138
				0.381376
				0.382662
				0.381879
				0.382747
				0.382105
				0.382415
				0.382016
				0.381798
				0.381675
				0.381063
				0.3812
				0.380395
				0.380703
				0.380002
				0.380323
				0.379611
				0.380287
				0.369962
				0.378387
				0.378222
				0.369589
				0.380917
				0.382677
				0.380625
				0.380783
				0.380663
				0.380812
				0.380711
				0.380898
				0.380744
				0.380999
				0.380733
				0.381063
				0.380651
				0.381045
				0.380488
				0.380914
				0.380261
				0.380677
				0.380005
				0.380368
				0.379759
				0.380042
				0.379548
				0.379748
				0.379389
				0.379524
				0.379287
				0.379395
				0.379236
				0.379411
				0.379234
				0.379473
				0.379282
				0.379408
				0.379382
				0.379387
				0.379537
				0.379512
				0.379745
				0.379733
				0.37999
				0.380022
				0.380243
				0.380346
				0.38047
				0.380653
				0.380635
				0.380891
				0.380719
				0.381023
				0.380733
				0.381046
				0.380706
				0.380987
				0.380663
				0.380893
				0.380628
				0.380815
				0.380941
				0.380772
				0.37773
				0.382808
			</DataArray>
			<DataArray type="Float64" Name="pressure" Format="ascii">
				5.24708
				5.2456
				5.19005
				5.2214
				5.0423
				5.14974
				4.79018
				5.00279
				4.45209
				4.76647
				4.07729
				4.46789
				3.7377
				4.1661
				3.52422
				3.93741
				3.52281
				3.85735
				3.72802
				3.95159
				4.05716
				4.17225
				4.43282
				4.45357
				4.79717
				4.74456
				5.10674
				5.01001
				5.33753
				5.2227
				5.48632
				5.34485
				5.48643
				5.37521
				5.33804
				5.34522
				5.10776
				5.22337
				4.79867
				5.01098
				4.43478
				4.7459
				4.05957
				4.45528
				3.73087
				4.17434
				3.52597
				3.95402
				3.52729
				3.85993
				3.74035
				3.93983
				4.07937
				4.16817
				4.45329
				4.46939
				4.79039
				4.76713
				5.04212
				5.00271
				5.19185
				5.15014
				5.26138
				5.21789
				5.17834
				5.1944
				5.14362
				5.1936
				5.07014
				5.11855
				4.95533
				4.99792
				4.81472
				4.8522
				4.66616
				4.68797
				4.53355
				4.51654
				4.45086
				4.36983
				4.44998
				4.29999
				4.53403
				4.34347
				4.67458
				4.48486
				4.83581
				4.67738
				4.98968
				4.87794
				5.11713
				5.05795
				5.2059
				5.20005
				5.25279
				5.2892
				5.25287
				5.29376
				5.20617
				5.28944
				5.11761
				5.20048
				4.99036
				5.05864
				4.83672
				4.87892
				4.67573
				4.67867
				4.53541
				4.48645
				4.45149
				4.3453
				4.45231
				4.30184
				4.53477
				4.37141
				4.66715
				4.51775
				4.81572
				4.68909
				4.95674
				4.85399
				5.07216
				5.00121
				5.14542
				5.12185
				5.17844
				5.19027
				5.10955
				5.1134
				5.08448
				5.09383
				5.03215
				5.06751
				4.95804
				5.01255
				4.86441
				4.94396
				4.76332
				4.86833
				4.67557
				4.79334
				4.62519
				4.73394
				4.6287
				4.70759
				4.68612
				4.72385
				4.78086
				4.77695
				4.8906
				4.85109
				4.9962
				4.92945
				5.08411
				4.99933
				5.14539
				5.05306
				5.17578
				5.08561
				5.17586
				5.09444
				5.14563
				5.08573
				5.08449
				5.05331
				4.99674
				4.99971
				4.89131
				4.92997
				4.78173
				4.85175
				4.68715
				4.77774
				4.62982
				4.72474
				4.62633
				4.70853
				4.67664
				4.73486
				4.76421
				4.79417
				4.86484
				4.86897
				4.95754
				4.9443
				5.03051
				5.01242
				5.08418
				5.06619
				5.11831
				5.08516
				5.00554
				5.00337
				4.99423
				5.00626
				4.97672
				4.99033
				4.95326
				4.96332
				4.92602
				4.92956
				4.89824
				4.89465
				4.87534
				4.86415
				4.86326
				4.84432
				4.86611
				4.84123
				4.88339
				4.85707
				4.91068
				4.88834
				4.94183
				4.92785
				4.97139
				4.96783
				4.9956
				5.00221
				5.01249
				5.02743
				5.02157
				5.04222
				5.0216
				5.04456
				5.01259
				5.0423
				4.99577
				5.02759
				4.97164
				5.00246
				4.94216
				4.96817
				4.91107
				4.92827
				4.88385
				4.88885
				4.8666
				4.85764
				4.86376
				4.84182
				4.87582
				4.8449
				4.89872
				4.86473
				4.92656
				4.89533
				4.954
				4.93059
				4.97791
				4.965
				4.9959
				4.99216
				5.00618
				5.00451
				4.9801
				4.98557
				4.97616
				4.97129
				4.96479
				4.96851
				4.951
				4.96025
				4.9351
				4.94899
				4.91879
				4.93659
				4.9051
				4.92513
				4.89768
				4.91655
				4.89898
				4.91283
				4.90907
				4.91521
				4.92532
				4.9232
				4.94404
				4.93464
				4.96191
				4.94691
				4.9767
				4.95781
				4.98718
				4.96595
				4.99272
				4.97057
				4.99274
				4.9718
				4.98726
				4.97062
				4.97684
				4.96605
				4.9621
				4.95795
				4.94429
				4.9471
				4.92563
				4.93488
				4.90942
				4.92348
				4.89937
				4.91552
				4.89807
				4.91316
				4.90548
				4.91688
				4.91912
				4.92544
				4.9353
				4.93687
				4.95098
				4.94919
				4.96447
				4.9603
				4.97601
				4.96818
				4.98003
				4.96965
				4.95252
				4.95177
				4.95131
				4.95256
				4.94955
				4.95
				4.94653
				4.94702
				4.9431
				4.9428
				4.93969
				4.93835
				4.93705
				4.93476
				4.93596
				4.93308
				4.93695
				4.93392
				4.9398
				4.93719
				4.94388
				4.9422
				4.94836
				4.94797
				4.95252
				4.95353
				4.9559
				4.95814
				4.9583
				4.96134
				4.9596
				4.96301
				4.95961
				4.96327
				4.95834
				4.96304
				4.95597
				4.9614
				4.95262
				4.95823
				4.94848
				4.95366
				4.94403
				4.94813
				4.93997
				4.94238
				4.93712
				4.93739
				4.93614
				4.93413
				4.93722
				4.93329
				4.93986
				4.93497
				4.94327
				4.93857
				4.94673
				4.94307
				4.94983
				4.94739
				4.95158
				4.95039
				4.95243
				4.95227
				4.95039
				4.95324
				4.95037
				4.94846
				4.94885
				4.94886
				4.94723
				4.94803
				4.94533
				4.94688
				4.94342
				4.94559
				4.94186
				4.94438
				4.94108
				4.94355
				4.94136
				4.94329
				4.94275
				4.94371
				4.94495
				4.94478
				4.94749
				4.94626
				4.94993
				4.94782
				4.95198
				4.9492
				4.95347
				4.95019
				4.95429
				4.9507
				4.95431
				4.9508
				4.9535
				4.95072
				4.95203
				4.95023
				4.95001
				4.94925
				4.94758
				4.94789
				4.94506
				4.94634
				4.94287
				4.94488
				4.94149
				4.94382
				4.94121
				4.9434
				4.942
				4.94366
				4.94354
				4.94449
				4.94544
				4.94568
				4.94731
				4.94696
				4.94887
				4.94808
				4.95035
				4.94885
				4.94965
				4.94854
				4.94625
				4.9472
				4.94676
				4.94677
				4.94675
				4.94608
				4.94645
				4.94598
				4.94612
				4.9457
				4.94582
				4.94539
				4.94566
				4.94519
				4.94575
				4.94524
				4.94614
				4.94561
				4.9468
				4.94632
				4.94761
				4.94728
				4.94842
				4.94829
				4.94913
				4.94919
				4.94969
				4.9499
				4.95008
				4.95036
				4.9503
				4.95058
				4.95031
				4.9506
				4.9501
				4.95059
				4.94972
				4.95039
				4.94917
				4.94994
				4.94847
				4.94925
				4.94768
				4.94835
				4.94688
				4.94735
				4.94622
				4.9464
				4.94582
				4.94569
				4.94573
				4.94531
				4.94588
				4.94525
				4.94616
				4.94543
				4.94647
				4.94572
				4.94674
				4.94598
				4.94668
				4.94609
				4.94567
				4.94704
			</DataArray>
			<DataArray type="Float64" Name="velocity" NumberOfComponents="3" Format="ascii">
				0.117047 -0.0916017 0.0 
				0.188439 0.00802616 0.0 
				0.226818 -0.298031 0.0 
				0.253444 -0.174251 0.0 
				0.438373 -0.502738 0.0 
				0.426508 -0.353837 0.0 
				0.735752 -0.656164 0.0 
				0.667495 -0.503912 0.0 
				1.09126 -0.714584 0.0 
				0.952241 -0.592527 0.0 
				1.46055 -0.647056 0.0 
				1.25499 -0.592642 0.0 
				1.78231 -0.443397 0.0 
				1.53921 -0.484257 0.0 
				1.97777 -0.124983 0.0 
				1.75128 -0.264918 0.0 
				1.97467 0.240134 0.0 
				1.82888 0.0325328 0.0 
				1.77983 0.557502 0.0 
				1.74449 0.333382 0.0 
				1.46849 0.766111 0.0 
				1.53422 0.565296 0.0 
				1.11389 0.848054 0.0 
				1.25735 0.693739 0.0 
				0.770569 0.80915 0.0 
				0.96545 0.713144 0.0 
				0.47679 0.668768 0.0 
				0.697227 0.633905 0.0 
				0.256471 0.451393 0.0 
				0.479466 0.477921 0.0 
				0.167921 0.179241 0.0 
				0.338872 0.277616 0.0 
				0.167777 -0.178329 0.0 
				0.400177 0.000456801 0.0 
				0.256097 -0.450312 0.0 
				0.338458 -0.276659 0.0 
				0.476244 -0.667646 0.0 
				0.479042 -0.476855 0.0 
				0.769773 -0.808069 0.0 
				0.696641 -0.632873 0.0 
				1.11282 -0.847062 0.0 
				0.964647 -0.712189 0.0 
				1.46711 -0.765257 0.0 
				1.2563 -0.6929 0.0 
				1.7781 -0.556872 0.0 
				1.53292 -0.564636 0.0 
				1.97268 -0.239855 0.0 
				1.74296 -0.332998 0.0 
				1.97582 0.124841 0.0 
				1.82726 -0.0325304 0.0 
				1.78064 0.442906 0.0 
				1.74979 0.264545 0.0 
				1.45928 0.646375 0.0 
				1.53796 0.483658 0.0 
				1.09053 0.714119 0.0 
				1.25394 0.592137 0.0 
				0.735631 0.656774 0.0 
				0.951155 0.59272 0.0 
				0.43859 0.505482 0.0 
				0.666002 0.505492 0.0 
				0.231023 0.302775 0.0 
				0.424771 0.357411 0.0 
				0.128733 0.0922354 0.0 
				0.272253 0.164259 0.0 
				0.492604 -0.0588133 0.0 
				0.362618 0.018581 0.0 
				0.668017 -0.171713 0.0 
				0.497552 -0.13181 0.0 
				0.814525 -0.268343 0.0 
				0.673335 -0.264346 0.0 
				0.949163 -0.330082 0.0 
				0.843503 -0.357964 0.0 
				1.08777 -0.346529 0.0 
				1.0121 -0.405733 0.0 
				1.2316 -0.308605 0.0 
				1.1842 -0.400599 0.0 
				1.36162 -0.211204 0.0 
				1.35441 -0.330314 0.0 
				1.44272 -0.062482 0.0 
				1.49403 -0.187131 0.0 
				1.44219 0.106998 0.0 
				1.55552 0.0125789 0.0 
				1.35716 0.254213 0.0 
				1.50704 0.218653 0.0 
				1.21561 0.349246 0.0 
				1.36479 0.376094 0.0 
				1.05276 0.382704 0.0 
				1.17346 0.458489 0.0 
				0.896666 0.358748 0.0 
				0.973691 0.46525 0.0 
				0.766638 0.286899 0.0 
				0.792707 0.406482 0.0 
				0.676306 0.176917 0.0 
				0.648187 0.294156 0.0 
				0.63465 0.0454794 0.0 
				0.554236 0.141984 0.0 
				0.634554 -0.0445733 0.0 
				0.612457 0.000520965 0.0 
				0.676067 -0.176135 0.0 
				0.553861 -0.141071 0.0 
				0.766281 -0.286148 0.0 
				0.647837 -0.29331 0.0 
				0.896161 -0.35802 0.0 
				0.792239 -0.405647 0.0 
				1.05207 -0.382027 0.0 
				0.97304 -0.464442 0.0 
				1.21473 -0.348665 0.0 
				1.1726 -0.457747 0.0 
				1.3561 -0.253789 0.0 
				1.36369 -0.375483 0.0 
				1.44101 -0.106794 0.0 
				1.50574 -0.218274 0.0 
				1.44158 0.0624449 0.0 
				1.55419 -0.0125256 0.0 
				1.36067 0.210978 0.0 
				1.49289 0.186884 0.0 
				1.23087 0.308197 0.0 
				1.35354 0.329934 0.0 
				1.08714 0.345716 0.0 
				1.18332 0.400292 0.0 
				0.948291 0.328287 0.0 
				1.01037 0.405454 0.0 
				0.812947 0.264919 0.0 
				0.84003 0.35686 0.0 
				0.664962 0.167934 0.0 
				0.667747 0.260886 0.0 
				0.478006 0.0727084 0.0 
				0.507689 0.127043 0.0 
				0.623123 -0.0367828 0.0 
				0.630467 0.00208125 0.0 
				0.78391 -0.120868 0.0 
				0.78179 -0.0663229 0.0 
				0.86988 -0.173654 0.0 
				0.86807 -0.115912 0.0 
				0.946524 -0.209719 0.0 
				0.924644 -0.147995 0.0 
				1.03763 -0.220393 0.0 
				0.991071 -0.161797 0.0 
				1.13774 -0.195647 0.0 
				1.0695 -0.151977 0.0 
				1.22597 -0.131787 0.0 
				1.14551 -0.114584 0.0 
				1.27805 -0.0360058 0.0 
				1.20102 -0.0504522 0.0 
				1.27734 0.0724462 0.0 
				1.22026 0.0305561 0.0 
				1.22379 0.168338 0.0 
				1.197 0.110014 0.0 
				1.1334 0.231907 0.0 
				1.13896 0.169799 0.0 
				1.02804 0.255267 0.0 
				1.06201 0.199988 0.0 
				0.926688 0.240382 0.0 
				0.982286 0.199434 0.0 
				0.842781 0.194406 0.0 
				0.912146 0.172395 0.0 
				0.784467 0.126679 0.0 
				0.859392 0.12574 0.0 
				0.746047 0.0455657 0.0 
				0.826927 0.0677163 0.0 
				0.74601 -0.0449164 0.0 
				0.829099 0.000287598 0.0 
				0.784304 -0.126039 0.0 
				0.826822 -0.0671448 0.0 
				0.842491 -0.193788 0.0 
				0.859191 -0.12518 0.0 
				0.926272 -0.239795 0.0 
				0.911836 -0.171859 0.0 
				1.02748 -0.254731 0.0 
				0.98186 -0.198933 0.0 
				1.13271 -0.231456 0.0 
				1.06146 -0.199545 0.0 
				1.22297 -0.168018 0.0 
				1.1383 -0.169446 0.0 
				1.27644 -0.0722942 0.0 
				1.19625 -0.109794 0.0 
				1.27713 0.0359858 0.0 
				1.21947 -0.0304997 0.0 
				1.2251 0.131619 0.0 
				1.20023 0.0503549 0.0 
				1.13704 0.195347 0.0 
				1.14475 0.114428 0.0 
				1.03742 0.219977 0.0 
				1.06883 0.151973 0.0 
				0.947369 0.209345 0.0 
				0.990655 0.162267 0.0 
				0.872168 0.173815 0.0 
				0.924792 0.149203 0.0 
				0.785048 0.122679 0.0 
				0.869409 0.117 0.0 
				0.602768 0.0382346 0.0 
				0.78588 0.0610385 0.0 
				0.862899 -0.0234769 0.0 
				0.735041 0.00472137 0.0 
				0.948406 -0.0370729 0.0 
				0.925559 -0.0339567 0.0 
				0.969104 -0.0545408 0.0 
				0.946302 -0.0603632 0.0 
				0.996282 -0.0647091 0.0 
				0.97577 -0.0789423 0.0 
				1.02601 -0.065915 0.0 
				1.01234 -0.0868845 0.0 
				1.05309 -0.0569376 0.0 
				1.05078 -0.0816633 0.0 
				1.07376 -0.0372676 0.0 
				1.08387 -0.0631115 0.0 
				1.08372 -0.00895849 0.0 
				1.10556 -0.0324637 0.0 
				1.07944 0.0224551 0.0 
				1.11043 0.0058728 0.0 
				1.06115 0.0496517 0.0 
				1.09629 0.0438721 0.0 
				1.03321 0.066981 0.0 
				1.06626 0.0730878 0.0 
				1.00175 0.0722764 0.0 
				1.02746 0.0882042 0.0 
				0.972244 0.0664534 0.0 
				0.987729 0.0882404 0.0 
				0.948331 0.0521393 0.0 
				0.953243 0.0754764 0.0 
				0.9319 0.0323559 0.0 
				0.927662 0.0536734 0.0 
				0.922755 0.0101081 0.0 
				0.913268 0.0267446 0.0 
				0.922719 -0.00973945 0.0 
				0.913344 0.000215982 0.0 
				0.931792 -0.0319955 0.0 
				0.913189 -0.0263162 0.0 
				0.948153 -0.0517929 0.0 
				0.927501 -0.0532571 0.0 
				0.971993 -0.0661321 0.0 
				0.952998 -0.075082 0.0 
				1.00143 -0.0719935 0.0 
				0.987399 -0.0878818 0.0 
				1.03282 -0.066752 0.0 
				1.02704 -0.0878985 0.0 
				1.0607 -0.0494933 0.0 
				1.06577 -0.0728556 0.0 
				1.07895 -0.0223821 0.0 
				1.09574 -0.0437356 0.0 
				1.08322 0.00893609 0.0 
				1.10985 -0.00584749 0.0 
				1.07328 0.0371431 0.0 
				1.10499 0.032386 0.0 
				1.0526 0.0566954 0.0 
				1.0833 0.0629819 0.0 
				1.02544 0.0655091 0.0 
				1.0501 0.0815693 0.0 
				0.995473 0.0640434 0.0 
				1.01127 0.0868746 0.0 
				0.967981 0.0535622 0.0 
				0.9741 0.0788669 0.0 
				0.947986 0.0360683 0.0 
				0.943846 0.0597256 0.0 
				0.853694 0.0278605 0.0 
				0.931645 0.0311836 0.0 
				0.904286 -0.00454389 0.0 
				0.88908 0.000133495 0.0 
				0.970047 -0.0213633 0.0 
				0.967615 -0.00914514 0.0 
				0.980361 -0.030204 0.0 
				0.981788 -0.0172806 0.0 
				0.99528 -0.0357493 0.0 
				0.992051 -0.022212 0.0 
				1.01132 -0.0365242 0.0 
				1.00287 -0.024165 0.0 
				1.02729 -0.0314932 0.0 
				1.01427 -0.0221609 0.0 
				1.04103 -0.0198952 0.0 
				1.02552 -0.0153493 0.0 
				1.04895 -0.0029336 0.0 
				1.03397 -0.00430606 0.0 
				1.04825 0.0159841 0.0 
				1.03692 0.00895764 0.0 
				1.03874 0.0325179 0.0 
				1.03318 0.0215339 0.0 
				1.02292 0.0433149 0.0 
				1.02376 0.0308054 0.0 
				1.00447 0.0470131 0.0 
				1.01112 0.0352482 0.0 
				0.986721 0.0440028 0.0 
				0.997965 0.0346728 0.0 
				0.971968 0.0356039 0.0 
				0.986431 0.0298288 0.0 
				0.961493 0.0233397 0.0 
				0.977893 0.0218265 0.0 
				0.954667 0.00843927 0.0 
				0.973122 0.0117269 0.0 
				0.954639 -0.00816541 0.0 
				0.973043 0.00011611 0.0 
				0.961412 -0.0230728 0.0 
				0.973077 -0.0114976 0.0 
				0.971833 -0.0353502 0.0 
				0.977801 -0.0216064 0.0 
				0.986532 -0.0437699 0.0 
				0.986293 -0.0296236 0.0 
				1.00423 -0.0468103 0.0 
				0.997781 -0.0344896 0.0 
				1.02263 -0.0431534 0.0 
				1.01089 -0.035096 0.0 
				1.03841 -0.0324092 0.0 
				1.0235 -0.0306942 0.0 
				1.04788 -0.0159375 0.0 
				1.03288 -0.0214734 0.0 
				1.04857 0.00291143 0.0 
				1.0366 -0.00895351 0.0 
				1.04066 0.019798 0.0 
				1.03365 0.00425732 0.0 
				1.02697 0.0313134 0.0 
				1.02522 0.0152647 0.0 
				1.01112 0.03626 0.0 
				1.01402 0.0220732 0.0 
				0.99528 0.0354241 0.0 
				1.0027 0.0241227 0.0 
				0.980664 0.029875 0.0 
				0.991979 0.0222523 0.0 
				0.97099 0.0213653 0.0 
				0.981903 0.0172527 0.0 
				0.892515 0.00412465 0.0 
				0.967008 0.00846342 0.0 
				0.971502 -0.00622872 0.0 
				0.906565 0.00107031 0.0 
				0.998027 -0.00445834 0.0 
				1.00974 -0.00353143 0.0 
				0.999768 -0.00663235 0.0 
				0.995574 -0.0079658 0.0 
				1.00247 -0.00782377 0.0 
				1.00134 -0.00970858 0.0 
				1.00552 -0.00784413 0.0 
				1.00526 -0.01065 0.0 
				1.00859 -0.00642934 0.0 
				1.0096 -0.00977092 0.0 
				1.01071 -0.00372934 0.0 
				1.0134 -0.00689692 0.0 
				1.01124 -0.000134583 0.0 
				1.01547 -0.00254905 0.0 
				1.00993 0.00369952 0.0 
				1.01512 0.00237683 0.0 
				1.007 0.00695264 0.0 
				1.0124 0.00688268 0.0 
				1.00302 0.00894634 0.0 
				1.00789 0.010132 0.0 
				0.998774 0.00940534 0.0 
				1.00253 0.0116047 0.0 
				0.994922 0.00845669 0.0 
				0.99728 0.0112274 0.0 
				0.991895 0.00646889 0.0 
				0.992927 0.00931045 0.0 
				0.989847 0.00389088 0.0 
				0.98996 0.00638194 0.0 
				0.9885 0.0012515 0.0 
				0.988658 0.00303556 0.0 
				0.988486 -0.00113499 0.0 
				0.988888 7.24399e-05 0.0 
				0.989807 -0.00377749 0.0 
				0.988626 -0.00289233 0.0 
				0.991828 -0.00636258 0.0 
				0.989896 -0.0062448 0.0 
				0.994829 -0.0083619 0.0 
				0.992831 -0.00918429 0.0 
				0.998655 -0.00932699 0.0 
				0.997153 -0.0111178 0.0 
				1.00288 -0.00888972 0.0 
				1.00237 -0.0115178 0.0 
				1.00684 -0.00692295 0.0 
				1.00771 -0.0100744 0.0 
				1.00976 -0.00370107 0.0 
				1.0122 -0.00686042 0.0 
				1.01106 9.91684e-05 0.0 
				1.01492 -0.00239301 0.0 
				1.01054 0.00365962 0.0 
				1.01526 0.00249685 0.0 
				1.00842 0.00632578 0.0 
				1.0132 0.00681819 0.0 
				1.00534 0.00770376 0.0 
				1.00938 0.00967968 0.0 
				1.00226 0.0076367 0.0 
				1.005 0.0105588 0.0 
				0.999497 0.00639788 0.0 