<VTKFile type="UnstructuredGrid" version="0.1" byte_order="LittleEndian">
<UnstructuredGrid>
	<Piece NumberOfPoints="288" NumberOfCells="512">
		<CellData Scalars="density" Vectors="velocity">
			<DataArray type="Float64" Name="density" Format="ascii">
				1.04958
				1.04411
				1.04045
				1.0411
				1.01314
				1.02783
				0.969207
				0.998839
				0.913927
				0.956407
				0.854951
				0.906656
				0.801827
				0.857873
				0.768189
				0.821128
				0.770103
				0.810091
				0.806184
				0.829987
				0.860943
				0.870873
				0.921119
				0.920327
				0.977747
				0.9696
				1.02461
				1.01277
				1.0566
				1.04567
				1.06842
				1.06605
				1.06842
				1.07178
				1.0566
				1.06605
				1.02461
				1.04567
				0.977741
				1.01276
				0.921111
				0.969595
				0.860933
				0.92032
				0.806172
				0.870864
				0.770089
				0.829976
				0.768175
				0.810079
				0.801815
				0.821116
				0.854942
				0.857864
				0.91392
				0.90665
				0.969203
				0.956402
				1.01314
				0.998836
				1.04045
				1.02783
				1.04958
				1.0411
				1.03566
				1.04689
				1.03081
				1.044
				1.01866
				1.03254
				0.999039
				1.01237
				0.974509
				0.985101
				0.948039
				0.952708
				0.92429
				0.91923
				0.909893
				0.891762
				0.910753
				0.880032
				0.926693
				0.889431
				0.951754
				0.915221
				0.979519
				0.948603
				1.00547
				0.982581
				1.02686
				1.01257
				1.04215
				1.03562
				1.05001
				1.04987
				1.05001
				1.05443
				1.04215
				1.04987
				1.02685
				1.03562
				1.00547
				1.01257
				0.979515
				0.982577
				0.951749
				0.948598
				0.926686
				0.915214
				0.910746
				0.889423
				0.909886
				0.880023
				0.924284
				0.891754
				0.948035
				0.919224
				0.974506
				0.952704
				0.999037
				0.985098
				1.01865
				1.01237
				1.03081
				1.03254
				1.03566
				1.044
				1.02651
				1.021
				1.02485
				1.0192
				1.01615
				1.01568
				1.00399
				1.00782
				0.988922
				0.997372
				0.972665
				0.985416
				0.95816
				0.973771
				0.949243
				0.965085
				0.949008
				0.962013
				0.957635
				0.965734
				0.972245
				0.975084
				0.989063
				0.987442
				1.00502
				1.00017
				1.01816
				1.01139
				1.02746
				1.01996
				1.03235
				1.02528
				1.03235
				1.02702
				1.02746
				1.02528
				1.01816
				1.01995
				1.00502
				1.01139
				0.98906
				1.00017
				0.972242
				0.98744
				0.957631
				0.975081
				0.949003
				0.96573
				0.949239
				0.962009
				0.958156
				0.965082
				0.972662
				0.973768
				0.988919
				0.985413
				1.00399
				0.997371
				1.01615
				1.00782
				1.02485
				1.01568
				1.02651
				1.0192
				1.0076
				1.00968
				1.00794
				1.012
				1.00579
				1.00994
				1.00206
				1.00555
				0.997407
				0.999626
				0.992539
				0.992892
				0.988422
				0.986448
				0.9861
				0.981725
				0.986292
				0.980068
				0.988958
				0.982029
				0.993367
				0.987027
				0.99847
				0.993719
				1.00333
				1.00068
				1.00731
				1.00682
				1.01008
				1.0115
				1.01149
				1.01436
				1.01149
				1.01533
				1.01008
				1.01436
				1.00731
				1.0115
				1.00333
				1.00682
				0.998469
				1.00068
				0.993365
				0.993717
				0.988956
				0.987025
				0.98629
				0.982027
				0.986098
				0.980065
				0.988421
				0.981723
				0.992537
				0.986446
				0.997406
				0.992891
				1.00206
				0.999624
				1.00579
				1.00555
				1.00794
				1.00994
				1.0076
				1.012
				1.00294
				1.00191
				1.00464
				1.00243
				1.00313
				1.00269
				1.00114
				1.0016
				0.998733
				1.00003
				0.996259
				0.998277
				0.9942
				0.996639
				0.993071
				0.995483
				0.993209
				0.995123
				0.994586
				0.995676
				0.996835
				0.996997
				0.999433
				0.998758
				1.00191
				1.00059
				1.00393
				1.00221
				1.00533
				1.00343
				1.00604
				1.00419
				1.00604
				1.00444
				1.00533
				1.00419
				1.00393
				1.00343
				1.00191
				1.00221
				0.999432
				1.00059
				0.996834
				0.998757
				0.994585
				0.996996
				0.993208
				0.995675
				0.99307
				0.995122
				0.994199
				0.995482
				0.996258
				0.996638
				0.998733
				0.998276
				1.00114
				1.00003
				1.00313
				1.0016
				1.00464
				1.00269
				1.00294
				1.00243
				0.99996
				0.999002
				1.00092
				1.00164
				1.00071
				1.00129
				1.00023
				1.00068
				0.999676
				0.999919
				0.999113
				0.99909
				0.998656
				0.998326
				0.998419
				0.997801
				0.998479
				0.997662
				0.99883
				0.997964
				0.999384
				0.998634
				1.00002
				0.99951
				1.00062
				1.00041
				1.00111
				1.0012
				1.00145
				1.0018
				1.00162
				1.00216
				1.00162
				1.00229
				1.00145
				1.00216
				1.00111
				1.0018
				1.00062
				1.0012
				1.00002
				1.00041
				0.999384
				0.999509
				0.998829
				0.998633
				0.998478
				0.997963
				0.998419
				0.997661
				0.998655
				0.9978
				0.999113
				0.998326
				0.999675
				0.999089
				1.00023
				0.999919
				1.00071
				1.00068
				1.00092
				1.00129
				0.99996
				1.00164
				0.999503
				0.999518
				1.00058
				0.999969
				1.00029
				1.00024
				1.00009
				1.00013
				0.999839
				0.999984
				0.999587
				0.999819
				0.999385
				0.999667
				0.999289
				0.999564
				0.999331
				0.999543
				0.999504
				0.999614
				0.999767
				0.999765
				1.00007
				0.999961
				1.00035
				1.00017
				1.00058
				1.00035
				1.00075
				1.00048
				1.00083
				1.00057
				1.00083
				1.0006
				1.00075
				1.00057
				1.00058
				1.00048
				1.00035
				1.00035
				1.00007
				1.00017
				0.999766
				0.999961
				0.999503
				0.999765
				0.999331
				0.999614
				0.999289
				0.999543
				0.999384
				0.999564
				0.999586
				0.999666
				0.999839
				0.999819
				1.00009
				0.999983
				1.00029
				1.00013
				1.00058
				1.00024
				0.999503
				0.999969
				0.999505
				0.999068
				1.00005
				1.00026
				1.00002
				1.00002
				0.999976
				0.999978
				0.999922
				0.99992
				0.999872
				0.999854
				0.999839
				0.999795
				0.999835
				0.999761
				0.999869
				0.999768
				0.999941
				0.999827
				1.00004
				0.999934
				1.00014
				1.00006
				1.00022
				1.00019
				1.00029
				1.00029
				1.00034
				1.00037
				1.00036
				1.00042
				1.00036
				1.00043
				1.00034
				1.00042
				1.00029
				1.00037
				1.00022
				1.00029
				1.00014
				1.00019
				1.00004
				1.00006
				0.999941
				0.999934
				0.999868
				0.999827
				0.999834
				0.999767
				0.999839
				0.999761
				0.999872
				0.999794
				0.999922
				0.999854
				0.999975
				0.99992
				1.00002
				0.999978
				1.00005
				1.00002
				0.999505
				1.00026
			</DataArray>
			<DataArray type="Float64" Name="mach-number" Format="ascii">
				0.0558026
				0.0490975
				0.160809
				0.125539
				0.286205
				0.231682
				0.417053
				0.347754
				0.545481
				0.463828
				0.665174
				0.573441
				0.766469
				0.668909
				0.829787
				0.73747
				0.828325
				0.760478
				0.765453
				0.73008
				0.667591
				0.660444
				0.55347
				0.568768
				0.432247
				0.465797
				0.308177
				0.357693
				0.184694
				0.249199
				0.0705548
				0.148452
				0.0705638
				0.0757084
				0.184706
				0.14846
				0.30819
				0.24921
				0.43226
				0.357705
				0.553485
				0.46581
				0.667609
				0.568782
				0.765474
				0.660461
				0.828351
				0.7301
				0.829813
				0.760499
				0.766491
				0.73749
				0.665191
				0.668926
				0.545495
				0.573455
				0.417064
				0.46384
				0.286215
				0.347764
				0.160816
				0.23169
				0.0558059
				0.125544
				0.19091
				0.119364
				0.256438
				0.194277
				0.313431
				0.266373
				0.373069
				0.339261
				0.436026
				0.414652
				0.497657
				0.49032
				0.549632
				0.560241
				0.580678
				0.613816
				0.580792
				0.636209
				0.550185
				0.618801
				0.498491
				0.568671
				0.435981
				0.499281
				0.370414
				0.421106
				0.308214
				0.341392
				0.256235
				0.267027
				0.220479
				0.207226
				0.22048
				0.158359
				0.256239
				0.20723
				0.30822
				0.267034
				0.370422
				0.341401
				0.435991
				0.421116
				0.498502
				0.499293
				0.550198
				0.568685
				0.580806
				0.618817
				0.580691
				0.636225
				0.549645
				0.613831
				0.497667
				0.560253
				0.436035
				0.49033
				0.373076
				0.414661
				0.313438
				0.339269
				0.256445
				0.266381
				0.190915
				0.194283
				0.251685
				0.264663
				0.298995
				0.302921
				0.329564
				0.327453
				0.365537
				0.352405
				0.406054
				0.382814
				0.446324
				0.41529
				0.479968
				0.444914
				0.49983
				0.466114
				0.500419
				0.473781
				0.481408
				0.465703
				0.447797
				0.4441
				0.406564
				0.414043
				0.36414
				0.381087
				0.325851
				0.350023
				0.296183
				0.32469
				0.279574
				0.308262
				0.279575
				0.301799
				0.296186
				0.308263
				0.325856
				0.324693
				0.364145
				0.350027
				0.406571
				0.381092
				0.447805
				0.41405
				0.481418
				0.444107
				0.500429
				0.465711
				0.499839
				0.473789
				0.479977
				0.466122
				0.446332
				0.444921
				0.40606
				0.415296
				0.365543
				0.38282
				0.329569
				0.35241
				0.299
				0.327457
				0.251692
				0.302925
				0.334366
				0.301231
				0.352672
				0.340154
				0.36117
				0.348649
				0.373204
				0.362469
				0.386726
				0.379811
				0.39995
				0.398232
				0.410719
				0.414954
				0.416691
				0.426805
				0.416271
				0.430935
				0.409526
				0.426171
				0.398165
				0.41372
				0.384695
				0.396534
				0.371517
				0.377997
				0.360451
				0.361
				0.352643
				0.347627
				0.348575
				0.339178
				0.348576
				0.336019
				0.352644
				0.339179
				0.360453
				0.347629
				0.37152
				0.361003
				0.384698
				0.378
				0.398169
				0.396539
				0.409531
				0.413725
				0.416276
				0.426176
				0.416696
				0.430941
				0.410723
				0.426811
				0.399954
				0.414959
				0.386729
				0.398237
				0.373207
				0.379815
				0.361173
				0.362472
				0.352674
				0.348652
				0.33437
				0.340158
				0.35307
				0.354163
				0.365933
				0.366434
				0.370321
				0.371256
				0.376682
				0.375612
				0.383533
				0.380303
				0.390231
				0.385121
				0.395687
				0.389492
				0.398659
				0.392534
				0.39833
				0.393456
				0.394752
				0.391966
				0.388825
				0.388437
				0.381876
				0.383718
				0.37517
				0.378772
				0.36962
				0.374381
				0.365744
				0.371038
				0.363762
				0.368983
				0.363763
				0.36829
				0.365745
				0.368984
				0.369621
				0.371039
				0.375172
				0.374382
				0.381879
				0.378773
				0.388828
				0.38372
				0.394755
				0.388439
				0.398334
				0.391969
				0.398663
				0.393459
				0.39569
				0.392537
				0.390234
				0.389495
				0.383536
				0.385123
				0.376684
				0.380305
				0.370323
				0.375614
				0.365934
				0.371258
				0.353074
				0.366436
				0.370441
				0.360254
				0.376893
				0.374962
				0.378483
				0.376197
				0.379874
				0.378518
				0.381351
				0.380644
				0.382836
				0.382867
				0.384042
				0.384901
				0.384657
				0.386301
				0.384485
				0.386676
				0.383541
				0.385881
				0.382051
				0.3841
				0.380343
				0.381756
				0.378724
				0.379326
				0.377405
				0.377191
				0.376501
				0.375585
				0.376041
				0.374606
				0.376041
				0.374282
				0.376501
				0.374606
				0.377406
				0.375586
				0.378725
				0.377192
				0.380345
				0.379328
				0.382052
				0.381758
				0.383543
				0.384102
				0.384487
				0.385883
				0.384659
				0.386678
				0.384043
				0.386303
				0.382838
				0.384903
				0.381352
				0.382869
				0.379875
				0.380645
				0.378484
				0.378519
				0.376895
				0.376199
				0.370442
				0.374963
				0.37408
				0.372749
				0.37908
				0.378331
				0.379564
				0.379803
				0.380084
				0.380055
				0.380738
				0.380427
				0.381415
				0.380865
				0.38196
				0.381269
				0.382225
				0.381533
				0.382125
				0.381573
				0.381674
				0.381362
				0.380979
				0.380945
				0.380185
				0.380414
				0.379434
				0.379871
				0.378822
				0.379398
				0.378412
				0.379047
				0.378203
				0.378851
				0.378203
				0.378802
				0.378412
				0.378851
				0.378823
				0.379048
				0.379434
				0.379398
				0.380186
				0.379871
				0.380979
				0.380415
				0.381675
				0.380946
				0.382126
				0.381363
				0.382226
				0.381574
				0.381961
				0.381534
				0.381416
				0.38127
				0.380738
				0.380866
				0.380085
				0.380428
				0.379565
				0.380056
				0.379081
				0.379803
				0.374082
				0.378332
				0.378191
				0.37337
				0.380415
				0.380355
				0.380416
				0.380413
				0.380464
				0.380481
				0.380535
				0.380602
				0.380612
				0.380748
				0.380669
				0.380882
				0.380671
				0.380956
				0.380593
				0.380925
				0.380433
				0.38077
				0.380221
				0.380511
				0.379995
				0.3802
				0.379787
				0.379894
				0.37962
				0.379636
				0.379505
				0.379451
				0.379447
				0.37936
				0.379447
				0.379346
				0.379505
				0.37936
				0.37962
				0.379451
				0.379787
				0.379636
				0.379995
				0.379894
				0.380222
				0.3802
				0.380434
				0.380511
				0.380593
				0.380771
				0.380671
				0.380926
				0.380669
				0.380956
				0.380613
				0.380883
				0.380536
				0.380748
				0.380465
				0.380602
				0.380416
				0.380481
				0.380416
				0.380413
				0.378191
				0.380356
			</DataArray>
			<DataArray type="Float64" Name="pressure" Format="ascii">
				5.33158
				5.29325
				5.25997
				5.26642
				5.06526
				5.16482
				4.75974
				4.9571
				4.38335
				4.66386
				3.99037
				4.32979
				3.6438
				4.01031
				3.42748
				3.77398
				3.43645
				3.70183
				3.66094
				3.82473
				4.00969
				4.08538
				4.40336
				4.40924
				4.7842
				4.73988
				5.10787
				5.03557
				5.33555
				5.26463
				5.43027
				5.40926
				5.43027
				5.45959
				5.33553
				5.40926
				5.10784
				5.26461
				4.78416
				5.03554
				4.40331
				4.73985
				4.00963
				4.40919
				3.66087
				4.08532
				3.43636
				3.82466
				3.42739
				3.70175
				3.64372
				3.77391
				3.99031
				4.01025
				4.3833
				4.32975
				4.75971
				4.66383
				5.06524
				4.95708
				5.25996
				5.16481
				5.33158
				5.26642
				5.22803
				5.30617
				5.18175
				5.28114
				5.08903
				5.19011
				4.94922
				5.04579
				4.778
				4.85567
				4.59617
				4.63372
				4.43556
				4.40766
				4.33943
				4.22413
				4.34531
				4.14517
				4.45165
				4.20485
				4.62012
				4.37386
				4.80877
				4.59655
				4.98687
				4.82694
				5.13458
				5.03322
				5.24039
				5.19352
				5.29627
				5.29364
				5.29627
				5.33758
				5.24038
				5.29364
				5.13457
				5.1935
				4.98685
				5.0332
				4.80875
				4.82691
				4.62009
				4.59652
				4.45161
				4.37382
				4.34527
				4.20479
				4.33938
				4.14512
				4.43552
				4.22408
				4.59614
				4.40762
				4.77798
				4.63369
				4.94921
				4.85565
				5.08902
				5.04577
				5.18174
				5.1901
				5.22802
				5.28114
				5.16085
				5.12249
				5.13046
				5.09912
				5.06595
				5.06387
				4.9792
				5.00517
				4.87377
				4.93061
				4.76151
				4.84708
				4.66226
				4.76675
				4.60151
				4.7073
				4.5995
				4.6864
				4.65741
				4.71189
				4.75646
				4.77588
				4.87149
				4.86071
				4.98153
				4.94844
				5.07276
				5.02597
				5.13771
				5.08531
				5.17249
				5.12201
				5.17249
				5.13415
				5.1377
				5.12201
				5.07275
				5.0853
				4.98152
				5.02596
				4.87147
				4.94843
				4.75643
				4.86069
				4.65739
				4.77586
				4.59947
				4.71186
				4.60148
				4.68638
				4.66224
				4.70728
				4.76149
				4.76673
				4.87376
				4.84706
				4.97919
				4.9306
				5.06594
				5.00516
				5.13046
				5.06387
				5.16085
				5.09911
				5.01845
				5.04518
				5.00735
				5.0398
				4.98821
				5.01896
				4.96111
				4.98656
				4.92857
				4.94468
				4.89487
				4.89785
				4.86648
				4.85338
				4.85051
				4.82089
				4.85185
				4.80947
				4.87027
				4.82286
				4.90074
				4.85714
				4.93603
				4.90321
				4.96968
				4.95128
				4.99729
				4.99389
				5.01648
				5.02641
				5.0262
				5.0464
				5.0262
				5.05332
				5.01647
				5.0464
				4.99728
				5.02641
				4.96967
				4.99388
				4.93602
				4.95127
				4.90073
				4.9032
				4.87026
				4.85713
				4.85184
				4.82285
				4.85049
				4.80946
				4.86647
				4.82087
				4.89486
				4.85336
				4.92856
				4.89784
				4.9611
				4.94467
				4.98821
				4.98656
				5.00735
				5.01895
				5.01845
				5.0398
				4.98339
				4.97637
				4.97948
				4.96971
				4.96852
				4.96555
				4.95444
				4.9575
				4.93774
				4.94668
				4.92066
				4.93457
				4.90646
				4.92327
				4.89868
				4.91529
				4.89964
				4.91281
				4.90914
				4.91664
				4.92467
				4.92579
				4.94265
				4.93797
				4.95978
				4.95066
				4.97382
				4.96186
				4.98354
				4.97036
				4.98848
				4.97558
				4.98848
				4.97733
				4.98353
				4.97558
				4.97381
				4.97035
				4.95978
				4.96185
				4.94264
				4.95066
				4.92467
				4.93797
				4.90913
				4.92578
				4.89963
				4.91663
				4.89867
				4.9128
				4.90645
				4.91528
				4.92065
				4.92326
				4.93773
				4.93456
				4.95444
				4.94667
				4.96852
				4.95749
				4.97948
				4.96555
				4.98339
				4.96971
				4.9544
				4.95902
				4.95319
				4.95841
				4.95136
				4.95534
				4.94815
				4.95118
				4.94431
				4.94596
				4.94043
				4.94025
				4.93727
				4.93498
				4.93563
				4.93135
				4.93604
				4.9304
				4.93847
				4.93249
				4.94231
				4.93712
				4.94671
				4.94318
				4.95087
				4.94944
				4.95426
				4.95492
				4.95661
				4.95905
				4.9578
				4.96158
				4.95779
				4.96242
				4.95661
				4.96158
				4.95426
				4.95905
				4.95086
				4.95492
				4.9467
				4.94943
				4.94231
				4.94318
				4.93847
				4.93712
				4.93604
				4.93248
				4.93563
				4.93039
				4.93726
				4.93135
				4.94043
				4.93498
				4.94431
				4.94025
				4.94814
				4.94596
				4.95136
				4.95117
				4.95319
				4.95534
				4.9544
				4.95841
				4.94952
				4.94975
				4.94974
				4.94791
				4.94857
				4.94813
				4.94717
				4.94746
				4.94546
				4.94646
				4.94371
				4.94532
				4.94232
				4.94427
				4.94165
				4.94356
				4.94195
				4.94341
				4.94314
				4.94391
				4.94496
				4.94495
				4.94703
				4.94631
				4.949
				4.94772
				4.95061
				4.94897
				4.95174
				4.94993
				4.95232
				4.95051
				4.95232
				4.95071
				4.95174
				4.95051
				4.95061
				4.94993
				4.94899
				4.94897
				4.94703
				4.94772
				4.94496
				4.94631
				4.94314
				4.94495
				4.94195
				4.9439
				4.94165
				4.94341
				4.94231
				4.94356
				4.94371
				4.94427
				4.94546
				4.94532
				4.94717
				4.94646
				4.94857
				4.94746
				4.94974
				4.94813
				4.94952
				4.94791
				4.94622
				4.94786
				4.94687
				4.94735
				4.94673
				4.94673
				4.94641
				4.94642
				4.94604
				4.94602
				4.94569
				4.94557
				4.94546
				4.94516
				4.94543
				4.94492
				4.94567
				4.94497
				4.94617
				4.94538
				4.94683
				4.94612
				4.94752
				4.94701
				4.94813
				4.94789
				4.9486
				4.94862
				4.94892
				4.94915
				4.94909
				4.94946
				4.94909
				4.94956
				4.94892
				4.94946
				4.9486
				4.94915
				4.94813
				4.94862
				4.94752
				4.94788
				4.94683
				4.94701
				4.94617
				4.94612
				4.94567
				4.94538
				4.94543
				4.94497
				4.94546
				4.94492
				4.94569
				4.94515
				4.94604
				4.94557
				4.94641
				4.94602
				4.94673
				4.94642
				4.94687
				4.94673
				4.94622
				4.94735
			</DataArray>
			<DataArray type="Float64" Name="velocity" NumberOfComponents="3" Format="ascii">
				0.123181 -0.083496 0.0 
				0.130801 5.17189e-06 0.0 
				0.259431 -0.340177 0.0 
				0.27197 -0.194019 0.0 
				0.485252 -0.581269 0.0 
				0.449001 -0.419537 0.0 
				0.7997 -0.745874 0.0 
				0.690766 -0.602565 0.0 
				1.16993 -0.793217 0.0 
				0.98599 -0.704673 0.0 
				1.54803 -0.70338 0.0 
				1.30784 -0.698613 0.0 
				1.87376 -0.476022 0.0 
				1.61303 -0.571341 0.0 
				2.06944 -0.135608 0.0 
				1.84189 -0.32704 0.0 
				2.05541 0.248349 0.0 
				1.9235 -0.00118062 0.0 
				1.84181 0.576815 0.0 
				1.8257 0.324913 0.0 
				1.51097 0.789242 0.0 
				1.59229 0.573863 0.0 
				1.13816 0.868758 0.0 
				1.28981 0.711473 0.0 
				0.779125 0.82028 0.0 
				0.973517 0.732914 0.0 
				0.475963 0.66053 0.0 
				0.685948 0.648141 0.0 
				0.260778 0.416116 0.0 
				0.46003 0.475491 0.0 
				0.137499 0.128511 0.0 
				0.315012 0.239415 0.0 
				0.137501 -0.128544 0.0 
				0.202178 -1.53888e-05 0.0 
				0.260786 -0.416147 0.0 
				0.315015 -0.239445 0.0 
				0.475978 -0.660559 0.0 
				0.460042 -0.475517 0.0 
				0.779144 -0.820308 0.0 
				0.685965 -0.648167 0.0 
				1.13819 -0.868784 0.0 
				0.973538 -0.732937 0.0 
				1.51101 -0.789264 0.0 
				1.28984 -0.711494 0.0 
				1.84186 -0.576832 0.0 
				1.59232 -0.57388 0.0 
				2.05546 -0.248357 0.0 
				1.82574 -0.324922 0.0 
				2.0695 0.135613 0.0 
				1.92355 0.00118224 0.0 
				1.87381 0.476035 0.0 
				1.84193 0.327052 0.0 
				1.54807 0.703399 0.0 
				1.61307 0.57136 0.0 
				1.16996 0.793239 0.0 
				1.30787 0.698632 0.0 
				0.79972 0.745896 0.0 
				0.986011 0.704694 0.0 
				0.485265 0.581289 0.0 
				0.690782 0.602585 0.0 
				0.259439 0.340193 0.0 
				0.449014 0.419555 0.0 
				0.123184 0.0835066 0.0 
				0.271978 0.194032 0.0 
				0.499953 -0.0873111 0.0 
				0.317964 5.55822e-06 0.0 
				0.646137 -0.212847 0.0 
				0.487223 -0.17295 0.0 
				0.765967 -0.316848 0.0 
				0.631421 -0.317219 0.0 
				0.90342 -0.38617 0.0 
				0.78853 -0.425854 0.0 
				1.06693 -0.40824 0.0 
				0.974851 -0.485955 0.0 
				1.24282 -0.369272 0.0 
				1.18617 -0.479609 0.0 
				1.40049 -0.261252 0.0 
				1.39764 -0.39189 0.0 
				1.49759 -0.0925708 0.0 
				1.56531 -0.219967 0.0 
				1.49763 0.101194 0.0 
				1.63371 0.0117135 0.0 
				1.40101 0.270074 0.0 
				1.57308 0.244475 0.0 
				1.24258 0.380473 0.0 
				1.40967 0.420117 0.0 
				1.06211 0.422321 0.0 
				1.19488 0.513168 0.0 
				0.890119 0.4005 0.0 
				0.972493 0.523305 0.0 
				0.747033 0.327032 0.0 
				0.773355 0.461503 0.0 
				0.644259 0.217119 0.0 
				0.618211 0.344131 0.0 
				0.579802 0.0842721 0.0 
				0.516643 0.190299 0.0 
				0.579803 -0.084292 0.0 
				0.42157 -1.12124e-05 0.0 
				0.644263 -0.21714 0.0 
				0.516645 -0.190323 0.0 
				0.747042 -0.327052 0.0 
				0.618219 -0.344154 0.0 
				0.890133 -0.400519 0.0 
				0.773368 -0.461525 0.0 
				1.06213 -0.422339 0.0 
				0.972511 -0.523325 0.0 
				1.24261 -0.380488 0.0 
				1.19491 -0.513187 0.0 
				1.40104 -0.270084 0.0 
				1.4097 -0.420133 0.0 
				1.49767 -0.101197 0.0 
				1.57312 -0.244485 0.0 
				1.49762 0.0925753 0.0 
				1.63375 -0.0117138 0.0 
				1.40051 0.261262 0.0 
				1.56534 0.219976 0.0 
				1.24284 0.369287 0.0 
				1.39767 0.391905 0.0 
				1.06695 0.408256 0.0 
				1.18619 0.479625 0.0 
				0.903435 0.386187 0.0 
				0.974868 0.485972 0.0 
				0.76598 0.316864 0.0 
				0.788544 0.425872 0.0 
				0.646149 0.212864 0.0 
				0.631435 0.317237 0.0 
				0.499966 0.087325 0.0 
				0.487235 0.172967 0.0 
				0.666338 -0.0430633 0.0 
				0.701429 7.51159e-06 0.0 
				0.780623 -0.131038 0.0 
				0.798697 -0.0693058 0.0 
				0.848951 -0.193276 0.0 
				0.855786 -0.12672 0.0 
				0.933897 -0.235719 0.0 
				0.913693 -0.169222 0.0 
				1.03724 -0.248502 0.0 
				0.988752 -0.191374 0.0 
				1.147 -0.222808 0.0 
				1.07374 -0.186376 0.0 
				1.24314 -0.154652 0.0 
				1.15512 -0.149275 0.0 
				1.30113 -0.0505174 0.0 
				1.21534 -0.0810252 0.0 
				1.30172 0.0686078 0.0 
				1.23727 0.0072407 0.0 
				1.24411 0.173668 0.0 
				1.21342 0.0951596 0.0 
				1.14656 0.242484 0.0 
				1.15151 0.162506 0.0 
				1.03363 0.2672 0.0 
				1.06874 0.198038 0.0 
				0.925786 0.251111 0.0 
				0.982726 0.200455 0.0 
				0.836375 0.202729 0.0 
				0.906564 0.174654 0.0 
				0.772535 0.13157 0.0 
				0.848241 0.127902 0.0 
				0.739009 0.0462002 0.0 
				0.812455 0.0672714 0.0 
				0.73901 -0.0462166 0.0 
				0.798409 -7.22329e-06 0.0 
				0.772539 -0.131586 0.0 
				0.812458 -0.0672859 0.0 
				0.836383 -0.202745 0.0 
				0.848247 -0.127917 0.0 
				0.925797 -0.251126 0.0 
				0.906572 -0.174668 0.0 
				1.03365 -0.267214 0.0 
				0.982737 -0.200468 0.0 
				1.14658 -0.242496 0.0 
				1.06876 -0.198049 0.0 
				1.24413 -0.173676 0.0 
				1.15153 -0.162515 0.0 
				1.30174 -0.0686106 0.0 
				1.21344 -0.0951641 0.0 
				1.30115 0.0505202 0.0 
				1.23729 -0.00724051 0.0 
				1.24316 0.154659 0.0 
				1.21536 0.0810298 0.0 
				1.14701 0.222818 0.0 
				1.15514 0.149283 0.0 
				1.03726 0.248514 0.0 
				1.07376 0.186386 0.0 
				0.933909 0.235732 0.0 
				0.988764 0.191386 0.0 
				0.848961 0.193289 0.0 
				0.913703 0.169234 0.0 
				0.780633 0.131051 0.0 
				0.855795 0.126732 0.0 
				0.666355 0.043077 0.0 
				0.798708 0.0693176 0.0 
				0.882699 -0.0202797 0.0 
				0.796728 4.60615e-06 0.0 
				0.929207 -0.0403612 0.0 
				0.897322 -0.0389032 0.0 
				0.949719 -0.0611509 0.0 
				0.916959 -0.0699795 0.0 
				0.979734 -0.0742567 0.0 
				0.950472 -0.0935684 0.0 
				1.01422 -0.0773603 0.0 
				0.99392 -0.105436 0.0 
				1.04871 -0.0680722 0.0 
				1.04156 -0.101864 0.0 
				1.07734 -0.0457077 0.0 
				1.08607 -0.0805456 0.0 
				1.0934 -0.0130442 0.0 
				1.11828 -0.042477 0.0 
				1.09217 0.0233055 0.0 
				1.12951 0.00604023 0.0 
				1.0739 0.0550763 0.0 
				1.11616 0.0542453 0.0 
				1.04366 0.0758787 0.0 
				1.08207 0.091347 0.0 
				1.00863 0.0831323 0.0 
				1.03628 0.110932 0.0 
				0.975243 0.0776531 0.0 
				0.98854 0.112004 0.0 
				0.947904 0.0621228 0.0 
				0.946309 0.0972567 0.0 
				0.929014 0.0397623 0.0 
				0.914159 0.0708889 0.0 
				0.919286 0.0137682 0.0 
				0.894355 0.0372455 0.0 
				0.919287 -0.0137776 0.0 
				0.886979 -5.527e-06 0.0 
				0.929017 -0.0397715 0.0 
				0.894357 -0.0372565 0.0 
				0.947909 -0.0621316 0.0 
				0.914164 -0.0708996 0.0 
				0.97525 -0.0776612 0.0 
				0.946315 -0.0972669 0.0 
				1.00864 -0.0831394 0.0 
				0.988548 -0.112013 0.0 
				1.04367 -0.0758843 0.0 
				1.03629 -0.11094 0.0 
				1.07391 -0.0550798 0.0 
				1.08208 -0.0913528 0.0 
				1.09219 -0.0233066 0.0 
				1.11617 -0.0542484 0.0 
				1.09341 0.0130457 0.0 
				1.12953 -0.00604022 0.0 
				1.07736 0.0457115 0.0 
				1.11829 0.0424801 0.0 
				1.04872 0.068078 0.0 
				1.08608 0.0805511 0.0 
				1.01423 0.0773674 0.0 
				1.04157 0.101871 0.0 
				0.979742 0.0742648 0.0 
				0.99393 0.105445 0.0 
				0.949725 0.0611597 0.0 
				0.950481 0.0935778 0.0 
				0.929214 0.0403706 0.0 
				0.916966 0.0699895 0.0 
				0.882708 0.0202885 0.0 
				0.897332 0.0389141 0.0 
				0.931194 -0.00608577 0.0 
				0.933919 3.26194e-06 0.0 
				0.963737 -0.0200992 0.0 
				0.965333 -0.00944741 0.0 
				0.974686 -0.030494 0.0 
				0.977385 -0.0178738 0.0 
				0.990794 -0.0371237 0.0 
				0.988462 -0.0239429 0.0 
				1.00829 -0.0386461 0.0 
				1.00043 -0.0269401 0.0 
				1.02559 -0.0338406 0.0 
				1.01279 -0.0258345 0.0 
				1.03983 -0.0223998 0.0 
				1.02409 -0.0199756 0.0 
				1.04763 -0.00581197 0.0 
				1.032 -0.00979094 0.0 
				1.04674 0.0125741 0.0 
				1.03439 0.00292991 0.0 
				1.0373 0.028637 0.0 
				1.03048 0.0154028 0.0 
				1.02182 0.0391487 0.0 
				1.02128 0.0249247 0.0 
				1.00391 0.0427455 0.0 
				1.00909 0.0298537 0.0 
				0.986862 0.0398233 0.0 
				0.996436 0.0299104 0.0 
				0.972928 0.0317903 0.0 
				0.985308 0.0258149 0.0 
				0.963295 0.0203324 0.0 
				0.976906 0.0187187 0.0 
				0.958401 0.00698917 0.0 
				0.971769 0.00978742 0.0 
				0.958401 -0.0069959 0.0 
				0.970042 -2.78561e-06 0.0 
				0.963297 -0.0203389 0.0 
				0.97177 -0.00979294 0.0 
				0.972932 -0.0317965 0.0 
				0.976908 -0.018724 0.0 
				0.986867 -0.039829 0.0 
				0.985311 -0.0258198 0.0 
				1.00392 -0.0427504 0.0 
				0.99644 -0.0299147 0.0 
				1.02183 -0.0391525 0.0 
				1.0091 -0.0298571 0.0 
				1.03731 -0.0286393 0.0 
				1.02129 -0.0249271 0.0 
				1.04675 -0.0125748 0.0 
				1.03049 -0.0154039 0.0 
				1.04764 0.00581303 0.0 
				1.0344 -0.00292961 0.0 
				1.03984 0.0224024 0.0 
				1.03201 0.00979264 0.0 
				1.0256 0.0338446 0.0 
				1.0241 0.0199785 0.0 
				1.0083 0.0386511 0.0 
				1.01279 0.0258383 0.0 
				0.990799 0.0371293 0.0 
				1.00043 0.0269446 0.0 
				0.974691 0.0305 0.0 
				0.988467 0.0239479 0.0 
				0.96374 0.0201055 0.0 
				0.977389 0.0178791 0.0 
				0.931204 0.00609197 0.0 
				0.965338 0.00945244 0.0 
				0.975627 -0.00351599 0.0 
				0.949703 2.16197e-06 0.0 
				0.992021 -0.00483881 0.0 
				0.987098 -0.00493546 0.0 
				0.996108 -0.00721995 0.0 
				0.990191 -0.00913445 0.0 
				0.999672 -0.00867244 0.0 
				0.996155 -0.0117017 0.0 
				1.00345 -0.00890435 0.0 
				1.00159 -0.0129864 0.0 
				1.00726 -0.00761734 0.0 
				1.00728 -0.0123295 0.0 
				1.01035 -0.00479149 0.0 
				1.01251 -0.00941059 0.0 
				1.01193 -0.00080954 0.0 
				1.01612 -0.00443949 0.0 
				1.01149 0.00353691 0.0 
				1.01709 0.00172572 0.0 
				1.00906 0.00729992 0.0 
				1.01503 0.00776126 0.0 
				1.00523 0.00972805 0.0 
				1.01044 0.0123574 0.0 
				1.00085 0.010503 0.0 
				1.00442 0.0147117 0.0 
				0.996718 0.00972458 0.0 
				0.998202 0.0146891 0.0 
				0.993361 0.00773287 0.0 
				0.992767 0.0126465 0.0 
				0.991066 0.00492975 0.0 
				0.988695 0.00915082 0.0 
				0.9899 0.00168942 0.0 
				0.986219 0.00477214 0.0 
				0.989901 -0.0016924 0.0 
				0.985402 -1.8752e-06 0.0 
				0.991067 -0.00493262 0.0 
				0.98622 -0.00477584 0.0 
				0.993363 -0.00773556 0.0 
				0.988696 -0.00915437 0.0 
				0.99672 -0.00972694 0.0 
				0.992769 -0.0126497 0.0 
				1.00086 -0.010505 0.0 
				0.998205 -0.0146919 0.0 
				1.00523 -0.0097294 0.0 
				1.00442 -0.014714 0.0 
				1.00906 -0.00730058 0.0 
				1.01044 -0.0123588 0.0 
				1.01149 -0.0035368 0.0 
				1.01504 -0.00776184 0.0 
				1.01194 0.000810449 0.0 
				1.0171 -0.00172534 0.0 
				1.01036 0.00479315 0.0 
				1.01613 0.00444081 0.0 
				1.00726 0.00761967 0.0 
				1.01252 0.00941275 0.0 
				1.00345 0.00890725 0.0 
				1.00729 0.0123324 0.0 
				0.999675 0.00867576 0.0 