<VTKFile type="UnstructuredGrid" version="0.1" byte_order="LittleEndian">
<UnstructuredGrid>
	<Piece NumberOfPoints="4224" NumberOfCells="8192">
		<CellData Scalars="density" Vectors="velocity">
			<DataArray type="Float64" Name="density" Format="ascii">
				0.979415
				0.979593
				0.979226
				0.979504
				0.978834
				0.979232
				0.978215
				0.978757
				0.977332
				0.978051
				0.976142
				0.977075
				0.97459
				0.975779
				0.972623
				0.974113
				0.970186
				0.972022
				0.967226
				0.969456
				0.963696
				0.966366
				0.959556
				0.962712
				0.954783
				0.958463
				0.94936
				0.953601
				0.943281
				0.948116
				0.936561
				0.942014
				0.929215
				0.935313
				0.921301
				0.928047
				0.912864
				0.92027
				0.903992
				0.912047
				0.894776
				0.903463
				0.885309
				0.894614
				0.87574
				0.885616
				0.866211
				0.876606
				0.856878
				0.867729
				0.847919
				0.859144
				0.839507
				0.851019
				0.831863
				0.843538
				0.825184
				0.836892
				0.819647
				0.831257
				0.815427
				0.826801
				0.812721
				0.823686
				0.811607
				0.822042
				0.812209
				0.821956
				0.814502
				0.823473
				0.81847
				0.826578
				0.824056
				0.831231
				0.83114
				0.837345
				0.839538
				0.844786
				0.849107
				0.853403
				0.859668
				0.863042
				0.87105
				0.873542
				0.883076
				0.884738
				0.895553
				0.896462
				0.908358
				0.908566
				0.921345
				0.920914
				0.93435
				0.93337
				0.9473
				0.94581
				0.960019
				0.958121
				0.972445
				0.97019
				0.98446
				0.981926
				0.995987
				0.993235
				1.00694
				1.00404
				1.01723
				1.01425
				1.0268
				1.0238
				1.03559
				1.03264
				1.04355
				1.0407
				1.05061
				1.04793
				1.05675
				1.05429
				1.06192
				1.05973
				1.06609
				1.06423
				1.06924
				1.06776
				1.07135
				1.07029
				1.07241
				1.07182
				1.07241
				1.07233
				1.07135
				1.07182
				1.06924
				1.07029
				1.06609
				1.06776
				1.06192
				1.06423
				1.05675
				1.05973
				1.05061
				1.05429
				1.04355
				1.04793
				1.03559
				1.0407
				1.0268
				1.03264
				1.01723
				1.0238
				1.00694
				1.01425
				0.995987
				1.00404
				0.98446
				0.993235
				0.972448
				0.981927
				0.960012
				0.970189
				0.947298
				0.958119
				0.934358
				0.945812
				0.921343
				0.933371
				0.908357
				0.920914
				0.895553
				0.908565
				0.883075
				0.896462
				0.871047
				0.884736
				0.859675
				0.873544
				0.849105
				0.863044
				0.839538
				0.853402
				0.83114
				0.844785
				0.824056
				0.837344
				0.81847
				0.831231
				0.814502
				0.826578
				0.812209
				0.823473
				0.811607
				0.821956
				0.812721
				0.822042
				0.815427
				0.823686
				0.819647
				0.826801
				0.825184
				0.831257
				0.831862
				0.836892
				0.839507
				0.843538
				0.847919
				0.851019
				0.856878
				0.859144
				0.866211
				0.867729
				0.87574
				0.876606
				0.885309
				0.885616
				0.894776
				0.894614
				0.903992
				0.903463
				0.912864
				0.912047
				0.921304
				0.920271
				0.929212
				0.928047
				0.936562
				0.935312
				0.943281
				0.942014
				0.94936
				0.948116
				0.954783
				0.953601
				0.959556
				0.958463
				0.963696
				0.962712
				0.967225
				0.966366
				0.970187
				0.969456
				0.972623
				0.972023
				0.97459
				0.974113
				0.976142
				0.975779
				0.977332
				0.977075
				0.978215
				0.978051
				0.978834
				0.978757
				0.979226
				0.979232
				0.979415
				0.979504
				0.980578
				0.980398
				0.980434
				0.980322
				0.980134
				0.980085
				0.979656
				0.97967
				0.978965
				0.979046
				0.978018
				0.978175
				0.976768
				0.977009
				0.975163
				0.975497
				0.973152
				0.973585
				0.970689
				0.971223
				0.967732
				0.968366
				0.964249
				0.964973
				0.960217
				0.961015
				0.955623
				0.956473
				0.950466
				0.951336
				0.944757
				0.94561
				0.938523
				0.939309
				0.931801
				0.932465
				0.924647
				0.925125
				0.917129
				0.91735
				0.909331
				0.909217
				0.901351
				0.900816
				0.893303
				0.892258
				0.885313
				0.883667
				0.877523
				0.875186
				0.870082
				0.866964
				0.863153
				0.859168
				0.8569
				0.851976
				0.851491
				0.845573
				0.847087
				0.840135
				0.843836
				0.835831
				0.841863
				0.832822
				0.841268
				0.831234
				0.842105
				0.831158
				0.844392
				0.832634
				0.848098
				0.835653
				0.853159
				0.84017
				0.859474
				0.846096
				0.866916
				0.853299
				0.875345
				0.861631
				0.884615
				0.870938
				0.894575
				0.881058
				0.905079
				0.891831
				0.915983
				0.903093
				0.927156
				0.914702
				0.938473
				0.926525
				0.949821
				0.93843
				0.961086
				0.950303
				0.972175
				0.96203
				0.98299
				0.973513
				0.993451
				0.984661
				1.00348
				0.99539
				1.013
				1.00562
				1.02195
				1.01529
				1.03027
				1.02432
				1.03791
				1.03267
				1.04482
				1.04027
				1.05096
				1.04709
				1.05629
				1.05308
				1.06078
				1.05821
				1.0644
				1.06244
				1.06714
				1.06576
				1.06897
				1.06815
				1.06989
				1.06958
				1.06989
				1.07006
				1.06897
				1.06958
				1.06714
				1.06815
				1.0644
				1.06576
				1.06078
				1.06244
				1.05629
				1.05821
				1.05096
				1.05308
				1.04483
				1.04709
				1.03791
				1.04027
				1.03027
				1.03267
				1.02195
				1.02432
				1.013
				1.01529
				1.00348
				1.00562
				0.993451
				0.99539
				0.98299
				0.984661
				0.972174
				0.973512
				0.961087
				0.962028
				0.949821
				0.950303
				0.938474
				0.938431
				0.927156
				0.926525
				0.915983
				0.914702
				0.905078
				0.903093
				0.894576
				0.89183
				0.884615
				0.881059
				0.875345
				0.870939
				0.866916
				0.861631
				0.859473
				0.853299
				0.853159
				0.846096
				0.848098
				0.84017
				0.844392
				0.835653
				0.842105
				0.832634
				0.841268
				0.831158
				0.841863
				0.831234
				0.843836
				0.832822
				0.847087
				0.835831
				0.851491
				0.840135
				0.8569
				0.845573
				0.863153
				0.851976
				0.870083
				0.859168
				0.877523
				0.866964
				0.885313
				0.875186
				0.893303
				0.883667
				0.901351
				0.892258
				0.909331
				0.900816
				0.917129
				0.909217
				0.924648
				0.91735
				0.931801
				0.925125
				0.938523
				0.932465
				0.944757
				0.939309
				0.950466
				0.94561
				0.955623
				0.951336
				0.960217
				0.956473
				0.964249
				0.961015
				0.967732
				0.964973
				0.970689
				0.968366
				0.973152
				0.971223
				0.975163
				0.973585
				0.976768
				0.975497
				0.978018
				0.977009
				0.978965
				0.978175
				0.979656
				0.979046
				0.980134
				0.97967
				0.980434
				0.980085
				0.980578
				0.980322
				0.981371
				0.981627
				0.981248
				0.981573
				0.980991
				0.981405
				0.980576
				0.981106
				0.979969
				0.980648
				0.979129
				0.979994
				0.978007
				0.9791
				0.976555
				0.977918
				0.974722
				0.976398
				0.972464
				0.974493
				0.969741
				0.972163
				0.966522
				0.969372
				0.962784
				0.966096
				0.958516
				0.962319
				0.953714
				0.958035
				0.948389
				0.953249
				0.942563
				0.94798
				0.936271
				0.942257
				0.929562
				0.936124
				0.922499
				0.929637
				0.91516
				0.922866
				0.907634
				0.915894
				0.90003
				0.908817
				0.892466
				0.901745
				0.885076
				0.894798
				0.878004
				0.888108
				0.871407
				0.881817
				0.865445
				0.876069
				0.860282
				0.871015
				0.856075
				0.866801
				0.85297
				0.863563
				0.851092
				0.861422
				0.850537
				0.860476
				0.85136
				0.860788
				0.853575
				0.86239
				0.857156
				0.865273
				0.862035
				0.869392
				0.868113
				0.874671
				0.875266
				0.881008
				0.883357
				0.888282
				0.89224
				0.896365
				0.901769
				0.905123
				0.9118
				0.914421
				0.922196
				0.924131
				0.932831
				0.934129
				0.943584
				0.9443
				0.954346
				0.954534
				0.965013
				0.964733
				0.975494
				0.974803
				0.985701
				0.984659
				0.995559
				0.994222
				1.00499
				1.00342
				1.01394
				1.01219
				1.02234
				1.02047
				1.03014
				1.0282
				1.0373
				1.03535
				1.04376
				1.04185
				1.0495
				1.04768
				1.05448
				1.0528
				1.05867
				1.05719
				1.06205
				1.06081
				1.0646
				1.06364
				1.06631
				1.06568
				1.06716
				1.0669
				1.06716
				1.06731
				1.06631
				1.0669
				1.0646
				1.06568
				1.06205
				1.06364
				1.05867
				1.06081
				1.05448
				1.05719
				1.0495
				1.0528
				1.04376
				1.04768
				1.0373
				1.04185
				1.03014
				1.03535
				1.02234
				1.0282
				1.01394
				1.02047
				1.00499
				1.01219
				0.995558
				1.00342
				0.985701
				0.994222
				0.975494
				0.984659
				0.965013
				0.974803
				0.954346
				0.964733
				0.943584
				0.954534
				0.932831
				0.9443
				0.922196
				0.93413
				0.9118
				0.924131
				0.901769
				0.914421
				0.89224
				0.905123
				0.883357
				0.896366
				0.875267
				0.888282
				0.868113
				0.881008
				0.862035
				0.874671
				0.857156
				0.869392
				0.853575
				0.865273
				0.85136
				0.86239
				0.850537
				0.860788
				0.851092
				0.860476
				0.85297
				0.861422
				0.856075
				0.863563
				0.860282
				0.866801
				0.865445
				0.871015
				0.871407
				0.876069
				0.878005
				0.881817
				0.885076
				0.888108
				0.892466
				0.894798
				0.90003
				0.901745
				0.907634
				0.908817
				0.91516
				0.915894
				0.922499
				0.922866
				0.929562
				0.929637
				0.936271
				0.936124
				0.942563
				0.942257
				0.948389
				0.94798
				0.953714
				0.953249
				0.958516
				0.958035
				0.962784
				0.962319
				0.966522
				0.966096
				0.969741
				0.969372
				0.972464
				0.972163
				0.974722
				0.974493
				0.976555
				0.976398
				0.978007
				0.977918
				0.979129
				0.9791
				0.979969
				0.979994
				0.980576
				0.980648
				0.980991
				0.981106
				0.981248
				0.981405
				0.981371
				0.981573
				0.982653
				0.982373
				0.982576
				0.982328
				0.982412
				0.982187
				0.982138
				0.981933
				0.981724
				0.981539
				0.981129
				0.980967
				0.980307
				0.980176
				0.979212
				0.979118
				0.977796
				0.977744
				0.976018
				0.976012
				0.973843
				0.973881
				0.971242
				0.971319
				0.968197
				0.968302
				0.964699
				0.964815
				0.960751
				0.960853
				0.956363
				0.95642
				0.951559
				0.951533
				0.946374
				0.946218
				0.940853
				0.940513
				0.935055
				0.934472
				0.92905
				0.928158
				0.922919
				0.921646
				0.916755
				0.915027
				0.910663
				0.908403
				0.904754
				0.901888
				0.899149
				0.895605
				0.893978
				0.88969
				0.889369
				0.884283
				0.885451
				0.879526
				0.882349
				0.875561
				0.880172
				0.87252
				0.879014
				0.87052
				0.878942
				0.869656
				0.879997
				0.86999
				0.882184
				0.87155
				0.885478
				0.874327
				0.889824
				0.878278
				0.895142
				0.883328
				0.901334
				0.889377
				0.908289
				0.896309
				0.915892
				0.903998
				0.924022
				0.912314
				0.932565
				0.921128
				0.941406
				0.930317
				0.95044
				0.939762
				0.959566
				0.949351
				0.968693
				0.958985
				0.977735
				0.968566
				0.986613
				0.978011
				0.995255
				0.987239
				1.00359
				0.996178
				1.01157
				1.00476
				1.01914
				1.01293
				1.02623
				1.02064
				1.03282
				1.02782
				1.03886
				1.03445
				1.04431
				1.04048
				1.04915
				1.04588
				1.05334
				1.05062
				1.05687
				1.05467
				1.05972
				1.05802
				1.06187
				1.06064
				1.0633
				1.06252
				1.06402
				1.06365
				1.06402
				1.06403
				1.0633
				1.06365
				1.06187
				1.06252
				1.05972
				1.06064
				1.05687
				1.05802
				1.05334
				1.05467
				1.04915
				1.05062
				1.04431
				1.04588
				1.03886
				1.04048
				1.03282
				1.03445
				1.02623
				1.02782
				1.01914
				1.02064
				1.01157
				1.01293
				1.00359
				1.00476
				0.995254
				0.996177
				0.986613
				0.987239
				0.977735
				0.978011
				0.968693
				0.968566
				0.959566
				0.958985
				0.95044
				0.949352
				0.941406
				0.939762
				0.932565
				0.930317
				0.924022
				0.921128
				0.915892
				0.912314
				0.908289
				0.903998
				0.901334
				0.896309
				0.895142
				0.889377
				0.889824
				0.883328
				0.885478
				0.878278
				0.882184
				0.874327
				0.879997
				0.87155
				0.878942
				0.86999
				0.879014
				0.869656
				0.880172
				0.87052
				0.882349
				0.87252
				0.885451
				0.875561
				0.889369
				0.879526
				0.893978
				0.884283
				0.899149
				0.88969
				0.904754
				0.895605
				0.910663
				0.901888
				0.916755
				0.908403
				0.922919
				0.915027
				0.92905
				0.921646
				0.935055
				0.928158
				0.940853
				0.934472
				0.946374
				0.940514
				0.951559
				0.946217
				0.956363
				0.951533
				0.960751
				0.95642
				0.964699
				0.960853
				0.968197
				0.964815
				0.971241
				0.968302
				0.973843
				0.971319
				0.976018
				0.973881
				0.977796
				0.976012
				0.979212
				0.977744
				0.980307
				0.979118
				0.981128
				0.980176
				0.981724
				0.980967
				0.982138
				0.981539
				0.982412
				0.981933
				0.982576
				0.982187
				0.982653
				0.982328
				0.98332
				0.983666
				0.983258
				0.983645
				0.983124
				0.983575
				0.982896
				0.983441
				0.982543
				0.983216
				0.982026
				0.982866
				0.981301
				0.982348
				0.980322
				0.981615
				0.979045
				0.980622
				0.977431
				0.979325
				0.975446
				0.977687
				0.973065
				0.975678
				0.970271
				0.973279
				0.967058
				0.970477
				0.963425
				0.967273
				0.959385
				0.963673
				0.954959
				0.959695
				0.950178
				0.955369
				0.945084
				0.950731
				0.939731
				0.945832
				0.934182
				0.940729
				0.928512
				0.935492
				0.922809
				0.930199
				0.917167
				0.924937
				0.911692
				0.919804
				0.906498
				0.914901
				0.901705
				0.910338
				0.897436
				0.906226
				0.893814
				0.902677
				0.890955
				0.899798
				0.888965
				0.89769
				0.887931
				0.896436
				0.887919
				0.896105
				0.888964
				0.896738
				0.891071
				0.898354
				0.894216
				0.900942
				0.898346
				0.904465
				0.903385
				0.908863
				0.909236
				0.91406
				0.915796
				0.919964
				0.922952
				0.926476
				0.930592
				0.933494
				0.938604
				0.940913
				0.94688
				0.948635
				0.955322
				0.956561
				0.963835
				0.964602
				0.972332
				0.972674
				0.980735
				0.980697
				0.988971
				0.9886
				0.996974
				0.996318
				1.00468
				1.00379
				1.01205
				1.01096
				1.01902
				1.01778
				1.02555
				1.02421
				1.0316
				1.0302
				1.03714
				1.03573
				1.04214
				1.04075
				1.04657
				1.04525
				1.05041
				1.04919
				1.05363
				1.05256
				1.05623
				1.05534
				1.05819
				1.05752
				1.05951
				1.05908
				1.06016
				1.06002
				1.06016
				1.06034
				1.05951
				1.06002
				1.05819
				1.05908
				1.05623
				1.05752
				1.05363
				1.05534
				1.05041
				1.05256
				1.04657
				1.04919
				1.04214
				1.04525
				1.03714
				1.04075
				1.0316
				1.03573
				1.02555
				1.0302
				1.01902
				1.02421
				1.01205
				1.01778
				1.00468
				1.01096
				0.996974
				1.00379
				0.988971
				0.996317
				0.980735
				0.9886
				0.972332
				0.980697
				0.963835
				0.972674
				0.955322
				0.964602
				0.94688
				0.956561
				0.938604
				0.948634
				0.930592
				0.940913
				0.922953
				0.933494
				0.915796
				0.926476
				0.909236
				0.919964
				0.903384
				0.91406
				0.898346
				0.908863
				0.894216
				0.904465
				0.891071
				0.900942
				0.888964
				0.898354
				0.887919
				0.896738
				0.887931
				0.896105
				0.888965
				0.896436
				0.890955
				0.89769
				0.893814
				0.899798
				0.897436
				0.902677
				0.901705
				0.906226
				0.906498
				0.910338
				0.911692
				0.914901
				0.917167
				0.919804
				0.922808
				0.924938
				0.928513
				0.930199
				0.934182
				0.935492
				0.939731
				0.940729
				0.945084
				0.945832
				0.950178
				0.950731
				0.954959
				0.955369
				0.959385
				0.959695
				0.963425
				0.963673
				0.967058
				0.967273
				0.970271
				0.970477
				0.973065
				0.973279
				0.975446
				0.975678
				0.977431
				0.977687
				0.979045
				0.979325
				0.980322
				0.980622
				0.981301
				0.981615
				0.982026
				0.982348
				0.982543
				0.982866
				0.982896
				0.983216
				0.983124
				0.983441
				0.983258
				0.983575
				0.98332
				0.983645
				0.984604
				0.984217
				0.984591
				0.984201
				0.984556
				0.984149
				0.984476
				0.984046
				0.984322
				0.983865
				0.984055
				0.983572
				0.983628
				0.983127
				0.982995
				0.982484
				0.982112
				0.981599
				0.980939
				0.980432
				0.979445
				0.978949
				0.977607
				0.977124
				0.975413
				0.974937
				0.972859
				0.972382
				0.96995
				0.969456
				0.966703
				0.966168
				0.963139
				0.962535
				0.959292
				0.958583
				0.955203
				0.954347
				0.950923
				0.949872
				0.946508
				0.945211
				0.942025
				0.940427
				0.937549
				0.935592
				0.933158
				0.930786
				0.92894
				0.926098
				0.924985
				0.921623
				0.921389
				0.917461
				0.918246
				0.913717
				0.915647
				0.910493
				0.91368
				0.907892
				0.912421
				0.906004
				0.911931
				0.90491
				0.912255
				0.90467
				0.913414
				0.905325
				0.915412
				0.906889
				0.918225
				0.909351
				0.921811
				0.912677
				0.926111
				0.916811
				0.931054
				0.921679
				0.936556
				0.927195
				0.942533
				0.933265
				0.948893
				0.939794
				0.95555
				0.946683
				0.962417
				0.953839
				0.969415
				0.961172
				0.976466
				0.968597
				0.983499
				0.976036
				0.99045
				0.983418
				0.997259
				0.990675
				1.00387
				0.997749
				1.01024
				1.00459
				1.01632
				1.01114
				1.02207
				1.01736
				1.02745
				1.02321
				1.03244
				1.02866
				1.037
				1.03367
				1.04111
				1.03823
				1.04476
				1.0423
				1.04791
				1.04587
				1.05057
				1.04891
				1.0527
				1.05143
				1.05431
				1.05339
				1.05539
				1.0548
				1.05593
				1.05565
				1.05593
				1.05593
				1.05539
				1.05565
				1.05431
				1.0548
				1.0527
				1.05339
				1.05057
				1.05143
				1.04791
				1.04892
				1.04476
				1.04587
				1.04111
				1.0423
				1.037
				1.03823
				1.03244
				1.03367
				1.02745
				1.02866
				1.02207
				1.02321
				1.01632
				1.01736
				1.01024
				1.01114
				1.00387
				1.00459
				0.997259
				0.997749
				0.99045
				0.990675
				0.983499
				0.983418
				0.976466
				0.976036
				0.969415
				0.968597
				0.962417
				0.961172
				0.95555
				0.953839
				0.948893
				0.946683
				0.942532
				0.939794
				0.936556
				0.933265
				0.931054
				0.927195
				0.926111
				0.921679
				0.921811
				0.916811
				0.918225
				0.912677
				0.915412
				0.909351
				0.913414
				0.906889
				0.912255
				0.905325
				0.911931
				0.90467
				0.912421
				0.90491
				0.91368
				0.906004
				0.915647
				0.907892
				0.918246
				0.910493
				0.921389
				0.913717
				0.924985
				0.917461
				0.92894
				0.921623
				0.933158
				0.926098
				0.937549
				0.930786
				0.942025
				0.935592
				0.946508
				0.940427
				0.950923
				0.945211
				0.955203
				0.949872
				0.959292
				0.954347
				0.963139
				0.958583
				0.966703
				0.962535
				0.96995
				0.966168
				0.972859
				0.969456
				0.975413
				0.972382
				0.977607
				0.974937
				0.979445
				0.977124
				0.980939
				0.978949
				0.982112
				0.980432
				0.982995
				0.981599
				0.983628
				0.982484
				0.984055
				0.983127
				0.984322
				0.983573
				0.984476
				0.983865
				0.984556
				0.984046
				0.984591
				0.984149
				0.984604
				0.984201
				0.98501
				0.985448
				0.985007
				0.985458
				0.984991
				0.985483
				0.984942
				0.985508
				0.984829
				0.985506
				0.984615
				0.98544
				0.984256
				0.985268
				0.983707
				0.984941
				0.982927
				0.984413
				0.981879
				0.98364
				0.980536
				0.98259
				0.978878
				0.981237
				0.976895
				0.979567
				0.974584
				0.977575
				0.971953
				0.975267
				0.969017
				0.972654
				0.965796
				0.969757
				0.962321
				0.966606
				0.95863
				0.963235
				0.954768
				0.959688
				0.950787
				0.956013
				0.946747
				0.952266
				0.942715
				0.948508
				0.938764
				0.944806
				0.934972
				0.941232
				0.931423
				0.937861
				0.928203
				0.934772
				0.925398
				0.932042
				0.923093
				0.929751
				0.921367
				0.927971
				0.920289
				0.926769
				0.919915
				0.926199
				0.920285
				0.926305
				0.921419
				0.927112
				0.923316
				0.928627
				0.925956
				0.930841
				0.929299
				0.933724
				0.933291
				0.937234
				0.937863
				0.941315
				0.94294
				0.945903
				0.948442
				0.950924
				0.954286
				0.956305
				0.96039
				0.96197
				0.966676
				0.967844
				0.973068
				0.973857
				0.979498
				0.97994
				0.9859
				0.986031
				0.992215
				0.992071
				0.998391
				0.998007
				1.00438
				1.00379
				1.01013
				1.00938
				1.01561
				1.01473
				1.02079
				1.0198
				1.02563
				1.02458
				1.03011
				1.02902
				1.0342
				1.03311
				1.03789
				1.03682
				1.04115
				1.04013
				1.04397
				1.04303
				1.04633
				1.04551
				1.04824
				1.04755
				1.04968
				1.04915
				1.05064
				1.0503
				1.05112
				1.05099
				1.05112
				1.05122
				1.05064
				1.05099
				1.04968
				1.0503
				1.04824
				1.04915
				1.04633
				1.04755
				1.04397
				1.04551
				1.04115
				1.04303
				1.03789
				1.04013
				1.0342
				1.03682
				1.03011
				1.03311
				1.02563
				1.02902
				1.02079
				1.02458
				1.01561
				1.0198
				1.01013
				1.01473
				1.00438
				1.00938
				0.998391
				1.00379
				0.992215
				0.998007
				0.9859
				0.992071
				0.979498
				0.986031
				0.973068
				0.97994
				0.966676
				0.973857
				0.96039
				0.967844
				0.954286
				0.96197
				0.948442
				0.956305
				0.94294
				0.950924
				0.937863
				0.945903
				0.933291
				0.941315
				0.929299
				0.937234
				0.925956
				0.933724
				0.923316
				0.930841
				0.921419
				0.928627
				0.920285
				0.927112
				0.919915
				0.926305
				0.920289
				0.926199
				0.921367
				0.926769
				0.923093
				0.927971
				0.925398
				0.929751
				0.928203
				0.932043
				0.931423
				0.934772
				0.934972
				0.937861
				0.938764
				0.941232
				0.942715
				0.944807
				0.946747
				0.948508
				0.950787
				0.952266
				0.954768
				0.956013
				0.95863
				0.959688
				0.962321
				0.963235
				0.965796
				0.966606
				0.969017
				0.969757
				0.971953
				0.972654
				0.974584
				0.975267
				0.976895
				0.977575
				0.978878
				0.979567
				0.980536
				0.981237
				0.981879
				0.98259
				0.982927
				0.98364
				0.983707
				0.984413
				0.984256
				0.984941
				0.984615
				0.985268
				0.984829
				0.98544
				0.984942
				0.985505
				0.984991
				0.985508
				0.985007
				0.985483
				0.98501
				0.985458
				0.986178
				0.985688
				0.986229
				0.985702
				0.986319
				0.985739
				0.986428
				0.985784
				0.986522
				0.985812
				0.986558
				0.985787
				0.986489
				0.985666
				0.986263
				0.985405
				0.985835
				0.984959
				0.985167
				0.984289
				0.984231
				0.983364
				0.983012
				0.982163
				0.981504
				0.980674
				0.979711
				0.978896
				0.977645
				0.976834
				0.975324
				0.9745
				0.972776
				0.971914
				0.97003
				0.969103
				0.967126
				0.966098
				0.964103
				0.962939
				0.961009
				0.959669
				0.957894
				0.956338
				0.954814
				0.953001
				0.951827
				0.949717
				0.948995
				0.946552
				0.946382
				0.943572
				0.944053
				0.940849
				0.942072
				0.938453
				0.940501
				0.936455
				0.939395
				0.934921
				0.938804
				0.93391
				0.938765
				0.933471
				0.939305
				0.933641
				0.940435
				0.934443
				0.942152
				0.935882
				0.94444
				0.937949
				0.947268
				0.940616
				0.950595
				0.943846
				0.95437
				0.947585
				0.958534
				0.951775
				0.963028
				0.95635
				0.967788
				0.961241
				0.97275
				0.96638
				0.977853
				0.971699
				0.983038
				0.977133
				0.988249
				0.98262
				0.993435
				0.988105
				0.998549
				0.993534
				1.00355
				0.998859
				1.00839
				1.00404
				1.01304
				1.00903
				1.01747
				1.01381
				1.02166
				1.01833
				1.02556
				1.02258
				1.02918
				1.02652
				1.03248
				1.03015
				1.03545
				1.03343
				1.03808
				1.03637
				1.04035
				1.03893
				1.04226
				1.04112
				1.04379
				1.04292
				1.04495
				1.04433
				1.04572
				1.04534
				1.04611
				1.04594
				1.04611
				1.04615
				1.04572
				1.04594
				1.04495
				1.04534
				1.04379
				1.04433
				1.04226
				1.04292
				1.04035
				1.04112
				1.03808
				1.03893
				1.03545
				1.03637
				1.03248
				1.03343
				1.02918
				1.03015
				1.02556
				1.02652
				1.02166
				1.02258
				1.01747
				1.01833
				1.01304
				1.01381
				1.00839
				1.00903
				1.00355
				1.00404
				0.998549
				0.998859
				0.993435
				0.993534
				0.988249
				0.988105
				0.983038
				0.98262
				0.977853
				0.977133
				0.97275
				0.971699
				0.967788
				0.96638
				0.963028
				0.961241
				0.958534
				0.95635
				0.95437
				0.951775
				0.950595
				0.947585
				0.947268
				0.943846
				0.94444
				0.940616
				0.942152
				0.937949
				0.940435
				0.935882
				0.939305
				0.934443
				0.938765
				0.933641
				0.938804
				0.933471
				0.939395
				0.93391
				0.940501
				0.934921
				0.942072
				0.936455
				0.944053
				0.938453
				0.946382
				0.940849
				0.948995
				0.943572
				0.951827
				0.946552
				0.954814
				0.949717
				0.957894
				0.953001
				0.961009
				0.956338
				0.964103
				0.959669
				0.967126
				0.962939
				0.97003
				0.966098
				0.972776
				0.969103
				0.975324
				0.971914
				0.977645
				0.9745
				0.979711
				0.976834
				0.981504
				0.978896
				0.983012
				0.980675
				0.984231
				0.982163
				0.985167
				0.983364
				0.985835
				0.984289
				0.986263
				0.984959
				0.986489
				0.985405
				0.986558
				0.985666
				0.986522
				0.985787
				0.986428
				0.985812
				0.986319
				0.985784
				0.986229
				0.985739
				0.986178
				0.985702
				0.98625
				0.986768
				0.986307
				0.98681
				0.986412
				0.98693
				0.986542
				0.987111
				0.986667
				0.987323
				0.986745
				0.987527
				0.986729
				0.987671
				0.986571
				0.987702
				0.986228
				0.98757
				0.985667
				0.987232
				0.984863
				0.986657
				0.983802
				0.985827
				0.982482
				0.984733
				0.980907
				0.983381
				0.97909
				0.981782
				0.977049
				0.979954
				0.974807
				0.977922
				0.972394
				0.975715
				0.969842
				0.973364
				0.967188
				0.970907
				0.964475
				0.968381
				0.961746
				0.965829
				0.959051
				0.963296
				0.956441
				0.96083
				0.953973
				0.958481
				0.951704
				0.956301
				0.94969
				0.954343
				0.947989
				0.952659
				0.946655
				0.951299
				0.945739
				0.950311
				0.945282
				0.949736
				0.945318
				0.949608
				0.945869
				0.949951
				0.946945
				0.95078
				0.948543
				0.952095
				0.950645
				0.953889
				0.953226
				0.95614
				0.956246
				0.958819
				0.95966
				0.961887
				0.963417
				0.9653
				0.96746
				0.969008
				0.971733
				0.972958
				0.976179
				0.9771
				0.980742
				0.981379
				0.98537
				0.985747
				0.990014
				0.990154
				0.994626
				0.994556
				0.999166
				0.998911
				1.0036
				1.00318
				1.00788
				1.00733
				1.01199
				1.01133
				1.0159
				1.01516
				1.01958
				1.01878
				1.02301
				1.02218
				1.02619
				1.02534
				1.02908
				1.02823
				1.03168
				1.03086
				1.03398
				1.0332
				1.03596
				1.03525
				1.03762
				1.037
				1.03896
				1.03844
				1.03997
				1.03956
				1.04064
				1.04036
				1.04098
				1.04085
				1.04098
				1.04101
				1.04064
				1.04085
				1.03997
				1.04036
				1.03896
				1.03956
				1.03762
				1.03844
				1.03596
				1.037
				1.03398
				1.03525
				1.03168
				1.0332
				1.02908
				1.03086
				1.02619
				1.02823
				1.02301
				1.02534
				1.01958
				1.02218
				1.0159
				1.01878
				1.01199
				1.01516
				1.00788
				1.01133
				1.0036
				1.00733
				0.999166
				1.00318
				0.994626
				0.998911
				0.990014
				0.994556
				0.98537
				0.990154
				0.980742
				0.985747
				0.976179
				0.981379
				0.971733
				0.9771
				0.96746
				0.972958
				0.963417
				0.969008
				0.95966
				0.9653
				0.956246
				0.961887
				0.953226
				0.958819
				0.950645
				0.95614
				0.948543
				0.953889
				0.946945
				0.952095
				0.945869
				0.95078
				0.945318
				0.949951
				0.945282
				0.949608
				0.945739
				0.949736
				0.946655
				0.950311
				0.947989
				0.951299
				0.94969
				0.952659
				0.951704
				0.954343
				0.953973
				0.956301
				0.956441
				0.958481
				0.959051
				0.96083
				0.961746
				0.963296
				0.964475
				0.965829
				0.967188
				0.968381
				0.969842
				0.970906
				0.972394
				0.973364
				0.974807
				0.975715
				0.977049
				0.977922
				0.97909
				0.979954
				0.980907
				0.981782
				0.982482
				0.983381
				0.983802
				0.984733
				0.984863
				0.985827
				0.985667
				0.986658
				0.986228
				0.987232
				0.986571
				0.98757
				0.986729
				0.987702
				0.986745
				0.987671
				0.986667
				0.987527
				0.986542
				0.987324
				0.986412
				0.987111
				0.986307
				0.98693
				0.98625
				0.98681
				0.987258
				0.986681
				0.987372
				0.986726
				0.987588
				0.986856
				0.98788
				0.987054
				0.988211
				0.987292
				0.988528
				0.98753
				0.988776
				0.987719
				0.988898
				0.987809
				0.988846
				0.987752
				0.988584
				0.987507
				0.988088
				0.987047
				0.98735
				0.986356
				0.986375
				0.985429
				0.985173
				0.984271
				0.983765
				0.982894
				0.982172
				0.981315
				0.980421
				0.979557
				0.978542
				0.977646
				0.976566
				0.97561
				0.974527
				0.973482
				0.972458
				0.971296