<VTKFile type="UnstructuredGrid" version="0.1" byte_order="LittleEndian">
<UnstructuredGrid>
	<Piece NumberOfPoints="4224" NumberOfCells="8192">
		<PointData Scalars="density" Vectors="velocity">
			<DataArray type="Float64" Name="density" Format="ascii">
				0.266442
				0.266332
				0.26604
				0.26559
				0.264919
				0.263954
				0.262661
				0.261029
				0.259062
				0.256774
				0.254188
				0.25133
				0.248229
				0.244912
				0.241409
				0.237746
				0.23395
				0.230048
				0.226068
				0.222038
				0.217993
				0.213961
				0.209976
				0.206081
				0.202323
				0.19875
				0.195417
				0.192384
				0.189735
				0.187552
				0.185903
				0.184872
				0.184518
				0.184856
				0.185877
				0.187511
				0.189686
				0.192331
				0.195359
				0.198688
				0.202258
				0.206011
				0.2099
				0.213874
				0.21789
				0.221919
				0.225924
				0.229876
				0.233749
				0.237511
				0.241144
				0.244622
				0.247928
				0.251041
				0.253941
				0.256616
				0.259049
				0.261227
				0.263138
				0.264773
				0.266123
				0.26718
				0.267939
				0.268396
				0.268548
				0.268396
				0.267939
				0.26718
				0.266122
				0.264773
				0.263138
				0.261227
				0.259048
				0.256615
				0.253941
				0.25104
				0.247928
				0.244622
				0.241143
				0.237509
				0.233747
				0.229876
				0.225923
				0.221917
				0.217889
				0.213872
				0.209898
				0.206011
				0.202256
				0.198686
				0.195357
				0.192329
				0.189684
				0.187509
				0.185875
				0.184854
				0.184515
				0.184869
				0.185901
				0.18755
				0.189733
				0.192382
				0.195415
				0.198749
				0.202321
				0.20608
				0.209975
				0.21396
				0.217991
				0.222037
				0.226067
				0.230046
				0.233949
				0.237745
				0.241408
				0.244911
				0.248228
				0.25133
				0.254187
				0.256773
				0.259061
				0.261029
				0.262661
				0.263954
				0.264919
				0.26559
				0.26604
				0.266332
				0.266376
				0.266171
				0.265816
				0.265294
				0.264529
				0.263471
				0.262102
				0.26042
				0.258435
				0.256163
				0.253628
				0.250853
				0.247865
				0.244688
				0.241348
				0.237869
				0.234275
				0.230592
				0.226845
				0.223063
				0.219276
				0.215515
				0.211814
				0.208217
				0.204768
				0.201517
				0.198519
				0.195843
				0.193565
				0.19176
				0.190496
				0.189845
				0.189837
				0.190478
				0.191728
				0.193522
				0.195791
				0.198458
				0.201446
				0.204689
				0.208129
				0.211716
				0.215404
				0.219151
				0.222921
				0.226683
				0.230407
				0.234066
				0.237635
				0.24109
				0.244409
				0.247575
				0.250568
				0.253371
				0.255969
				0.258347
				0.260494
				0.262397
				0.264047
				0.265436
				0.266555
				0.267399
				0.267964
				0.268248
				0.268248
				0.267964
				0.267399
				0.266555
				0.265435
				0.264047
				0.262397
				0.260494
				0.258347
				0.255968
				0.253371
				0.250568
				0.247575
				0.244409
				0.241089
				0.237633
				0.234066
				0.230406
				0.226682
				0.222919
				0.219149
				0.215403
				0.211715
				0.208128
				0.204687
				0.201445
				0.198457
				0.195789
				0.19352
				0.191727
				0.190476
				0.189835
				0.189843
				0.190494
				0.191758
				0.193563
				0.195841
				0.198518
				0.201515
				0.204766
				0.208216
				0.211813
				0.215514
				0.219275
				0.223062
				0.226844
				0.230591
				0.234274
				0.237868
				0.241347
				0.244687
				0.247864
				0.250853
				0.253627
				0.256163
				0.258435
				0.26042
				0.262102
				0.26347
				0.264529
				0.265294
				0.265816
				0.266171
				0.266376
				0.266187
				0.266075
				0.26579
				0.265375
				0.264778
				0.263937
				0.262831
				0.261454
				0.259812
				0.257917
				0.255785
				0.253435
				0.250888
				0.248163
				0.24528
				0.24226
				0.239123
				0.235889
				0.232582
				0.229225
				0.225845
				0.222469
				0.219128
				0.215857
				0.212697
				0.20969
				0.206887
				0.204345
				0.202125
				0.200297
				0.198926
				0.198072
				0.197777
				0.198058
				0.1989
				0.200258
				0.202074
				0.204282
				0.206814
				0.209607
				0.212604
				0.215755
				0.219017
				0.222348
				0.225714
				0.229085
				0.232431
				0.235728
				0.238952
				0.242082
				0.245098
				0.247982
				0.250718
				0.25329
				0.255685
				0.25789
				0.259893
				0.261684
				0.263255
				0.264597
				0.265705
				0.266572
				0.267194
				0.267568
				0.267693
				0.267568
				0.267194
				0.266571
				0.265705
				0.264597
				0.263255
				0.261684
				0.259892
				0.257889
				0.255684
				0.25329
				0.250717
				0.247982
				0.245097
				0.242081
				0.238952
				0.235728
				0.23243
				0.229084
				0.225713
				0.222347
				0.219016
				0.215754
				0.212603
				0.209606
				0.206813
				0.20428
				0.202072
				0.200256
				0.198898
				0.198057
				0.197775
				0.19807
				0.198924
				0.200296
				0.202124
				0.204343
				0.206886
				0.209689
				0.212696
				0.215856
				0.219127
				0.222468
				0.225844
				0.229224
				0.232581
				0.235888
				0.239122
				0.242259
				0.24528
				0.248162
				0.250887
				0.253435
				0.255784
				0.257916
				0.259812
				0.261454
				0.262831
				0.263937
				0.264778
				0.265375
				0.26579
				0.266075
				0.265697
				0.265481
				0.26513
				0.264645
				0.263962
				0.263055
				0.261919
				0.26056
				0.258985
				0.257206
				0.255238
				0.253093
				0.250785
				0.24833
				0.245743
				0.243039
				0.240237
				0.237355
				0.234414
				0.231435
				0.228445
				0.22547
				0.222541
				0.219692
				0.21696
				0.214391
				0.21203
				0.209931
				0.208152
				0.206749
				0.205775
				0.205273
				0.205267
				0.205756
				0.206717
				0.208108
				0.209876
				0.211964
				0.214316
				0.216878
				0.219603
				0.222446
				0.225371
				0.228343
				0.231332
				0.234311
				0.237255
				0.240143
				0.242955
				0.245672
				0.248278
				0.250758
				0.253097
				0.255285
				0.257309
				0.259159
				0.260826
				0.262302
				0.26358
				0.264655
				0.26552
				0.266172
				0.266609
				0.266828
				0.266828
				0.266609
				0.266172
				0.26552
				0.264654
				0.26358
				0.262302
				0.260826
				0.259159
				0.257308
				0.255285
				0.253097
				0.250757
				0.248277
				0.245671
				0.242954
				0.240143
				0.237255
				0.23431
				0.231331
				0.228343
				0.22537
				0.222445
				0.219602
				0.216877
				0.214315
				0.211963
				0.209874
				0.208106
				0.206715
				0.205754
				0.205265
				0.205272
				0.205774
				0.206748
				0.208151
				0.20993
				0.212029
				0.214389
				0.216959
				0.21969
				0.22254
				0.225469
				0.228444
				0.231434
				0.234413
				0.237354
				0.240236
				0.243039
				0.245742
				0.24833
				0.250785
				0.253092
				0.255237
				0.257206
				0.258984
				0.260559
				0.261919
				0.263055
				0.263962
				0.264645
				0.26513
				0.265481
				0.265697
				0.26502
				0.264901
				0.264611
				0.264209
				0.263653
				0.262906
				0.261967
				0.260844
				0.259543
				0.258074
				0.256442
				0.254658
				0.252729
				0.250666
				0.248478
				0.246179
				0.243782
				0.241303
				0.23876
				0.236172
				0.23356
				0.230949
				0.228364
				0.225835
				0.223396
				0.221082
				0.218935
				0.216998
				0.215319
				0.213946
				0.212923
				0.21229
				0.212071
				0.212278
				0.2129
				0.213911
				0.215275
				0.216944
				0.218873
				0.221013
				0.223321
				0.225756
				0.228282
				0.230866
				0.233479
				0.236095
				0.23869
				0.241245
				0.24374
				0.246159
				0.248485
				0.250706
				0.252809
				0.254782
				0.256616
				0.258301
				0.25983
				0.261196
				0.262391
				0.263412
				0.264253
				0.26491
				0.265382
				0.265666
				0.265761
				0.265666
				0.265382
				0.26491
				0.264252
				0.263411
				0.262391
				0.261195
				0.25983
				0.258301
				0.256615
				0.254782
				0.252808
				0.250705
				0.248484
				0.246158
				0.24374
				0.241244
				0.23869
				0.236094
				0.233478
				0.230865
				0.228281
				0.225755
				0.22332
				0.221012
				0.218872
				0.216943
				0.215273
				0.21391
				0.212898
				0.212277
				0.21207
				0.212288
				0.212922
				0.213944
				0.215318
				0.216997
				0.218934
				0.221081
				0.223395
				0.225834
				0.228363
				0.230948
				0.233559
				0.236171
				0.238759
				0.241302
				0.243781
				0.246178
				0.248477
				0.250665
				0.252729
				0.254658
				0.256442
				0.258073
				0.259543
				0.260844
				0.261967
				0.262906
				0.263653
				0.264209
				0.264611
				0.264901
				0.264017
				0.263808
				0.26348
				0.263033
				0.262426
				0.261655
				0.260732
				0.259665
				0.25846
				0.25712
				0.255649
				0.254052
				0.252335
				0.250505
				0.248571
				0.246545
				0.24444
				0.24227
				0.240051
				0.237802
				0.235543
				0.233297
				0.231088
				0.228944
				0.226897
				0.22498
				0.22323
				0.221686
				0.220387
				0.219371
				0.21867
				0.218311
				0.218306
				0.218657
				0.219348
				0.220357
				0.221649
				0.223187
				0.224931
				0.226844
				0.228889
				0.231032
				0.233242
				0.235492
				0.237757
				0.240015
				0.242246
				0.244433
				0.24656
				0.248612
				0.250578
				0.252445
				0.254204
				0.255845
				0.257361
				0.258745
				0.259989
				0.26109
				0.262041
				0.26284
				0.263483
				0.263967
				0.264291
				0.264454
				0.264454
				0.264291
				0.263967
				0.263483
				0.26284
				0.262041
				0.26109
				0.259989
				0.258744
				0.257361
				0.255845
				0.254203
				0.252445
				0.250577
				0.248612
				0.246559
				0.244432
				0.242245
				0.240014
				0.237756
				0.235491
				0.233241
				0.231031
				0.228888
				0.226844
				0.224931
				0.223186
				0.221648
				0.220355
				0.219347
				0.218655
				0.218305
				0.21831
				0.218669
				0.219369
				0.220386
				0.221685
				0.223229
				0.224979
				0.226896
				0.228943
				0.231087
				0.233296
				0.235542
				0.237802
				0.240051
				0.242269
				0.24444
				0.246545
				0.248571
				0.250504
				0.252334
				0.254052
				0.255649
				0.25712
				0.25846
				0.259665
				0.260732
				0.261654
				0.262426
				0.263033
				0.26348
				0.263808
				0.264017
				0.262845
				0.262741
				0.262491
				0.262143
				0.261667
				0.261047
				0.2603
				0.259436
				0.258457
				0.257366
				0.256163
				0.254852
				0.253435
				0.251919
				0.250311
				0.248618
				0.246852
				0.245023
				0.243146
				0.241236
				0.239309
				0.237384
				0.235482
				0.233627
				0.231844
				0.230162
				0.228609
				0.227219
				0.226023
				0.225052
				0.224335
				0.223893
				0.223742
				0.223887
				0.224323
				0.225035
				0.226001
				0.227193
				0.228581
				0.230132
				0.231814
				0.233598
				0.235456
				0.237362
				0.239294
				0.241231
				0.243153
				0.245045
				0.246892
				0.248681
				0.250399
				0.252038
				0.253586
				0.255037
				0.256384
				0.257619
				0.258738
				0.259735
				0.260607
				0.261351
				0.261963
				0.262441
				0.262784
				0.26299
				0.263059
				0.26299
				0.262784
				0.262441
				0.261963
				0.261351
				0.260607
				0.259735
				0.258737
				0.257619
				0.256383
				0.255037
				0.253586
				0.252037
				0.250399
				0.24868
				0.246892
				0.245045
				0.243153
				0.24123
				0.239294
				0.237362
				0.235455
				0.233597
				0.231813
				0.230131
				0.22858
				0.227192
				0.226
				0.225034
				0.224322
				0.223886
				0.223741
				0.223892
				0.224334
				0.225051
				0.226022
				0.227218
				0.228608
				0.230161
				0.231843
				0.233626
				0.235481
				0.237383
				0.239308
				0.241235
				0.243146
				0.245023
				0.246851
				0.248618
				0.25031
				0.251919
				0.253435
				0.254851
				0.256163
				0.257365
				0.258457
				0.259436
				0.2603
				0.261047
				0.261666
				0.262143
				0.26249
				0.262741
				0.261459
				0.261298
				0.261042
				0.260686
				0.260208
				0.259618
				0.258929
				0.258145
				0.257266
				0.256292
				0.255225
				0.254067
				0.252824
				0.251499
				0.250101
				0.248636
				0.247114
				0.245546
				0.243944
				0.242321
				0.240694
				0.239079
				0.237496
				0.235965
				0.23451
				0.233155
				0.231926
				0.230849
				0.22995
				0.229251
				0.228772
				0.228528
				0.228526
				0.228767
				0.229243
				0.229939
				0.230837
				0.231913
				0.233142
				0.234498
				0.235956
				0.237491
				0.23908
				0.240702
				0.242339
				0.243972
				0.245588
				0.247171
				0.24871
				0.250195
				0.251615
				0.252962
				0.254229
				0.25541
				0.256499
				0.257491
				0.258382
				0.259169
				0.259849
				0.260418
				0.260877
				0.261222
				0.261452
				0.261568
				0.261567
				0.261452
				0.261221
				0.260877
				0.260418
				0.259848
				0.259169
				0.258382
				0.257491
				0.256499
				0.25541
				0.254229
				0.252962
				0.251614
				0.250194
				0.24871
				0.247171
				0.245587
				0.243972
				0.242338
				0.240702
				0.239079
				0.23749
				0.235955
				0.234498
				0.233142
				0.231912
				0.230836
				0.229938
				0.229242
				0.228766
				0.228526
				0.228527
				0.228771
				0.22925
				0.229949
				0.230848
				0.231925
				0.233154
				0.234509
				0.235964
				0.237495
				0.239078
				0.240693
				0.242321
				0.243943
				0.245546
				0.247114
				0.248635
				0.2501
				0.251499
				0.252823
				0.254067
				0.255224
				0.256291
				0.257265
				0.258145
				0.258929
				0.259618
				0.260207
				0.260686
				0.261042
				0.261297
				0.261459
				0.260048
				0.259976
				0.259804
				0.259554
				0.259204
				0.258754
				0.258218
				0.2576
				0.256901
				0.256122
				0.255263
				0.254328
				0.253318
				0.25224
				0.251097
				0.249896
				0.248644
				0.247349
				0.246022
				0.244672
				0.243313
				0.241958
				0.240624
				0.239327
				0.238086
				0.23692
				0.235851
				0.2349
				0.234086
				0.23343
				0.232948
				0.232653
				0.232553
				0.232651
				0.232945
				0.233427
				0.234083
				0.234897
				0.23585
				0.236921
				0.23809
				0.239335
				0.240638
				0.241979
				0.243342
				0.244711
				0.246071
				0.247411
				0.24872
				0.249986
				0.251202
				0.25236
				0.253454
				0.254477
				0.255425
				0.256294
				0.257079
				0.257779
				0.25839
				0.25891
				0.259338
				0.259672
				0.259911
				0.260055
				0.260103
				0.260055
				0.259911
				0.259672
				0.259338
				0.25891
				0.25839
				0.257779
				0.257079
				0.256294
				0.255425
				0.254477
				0.253453
				0.25236
				0.251202
				0.249986
				0.248719
				0.247411
				0.246071
				0.24471
				0.243342
				0.241979
				0.240638
				0.239335
				0.238089
				0.23692
				0.235849
				0.234896
				0.234082
				0.233426
				0.232944
				0.23265
				0.232552
				0.232652
				0.232947
				0.233429
				0.234085
				0.234899
				0.235851
				0.23692
				0.238085
				0.239327
				0.240624
				0.241958
				0.243312
				0.244671
				0.246021
				0.247349
				0.248643
				0.249896
				0.251097
				0.25224
				0.253318
				0.254327
				0.255263
				0.256122
				0.256901
				0.2576
				0.258217
				0.258753
				0.259204
				0.259554
				0.259804
				0.259976
				0.258608
				0.258511
				0.258348
				0.258108
				0.257778
				0.257372
				0.256896
				0.25635
				0.255735
				0.255053
				0.254306
				0.253497
				0.252629
				0.251706
				0.250732
				0.249713
				0.248656
				0.247568
				0.246458
				0.245337
				0.244214
				0.243103
				0.242017
				0.240971
				0.239982
				0.239065
				0.238238
				0.237517
				0.236918
				0.236455
				0.23614
				0.23598
				0.23598
				0.23614
				0.236456
				0.23692
				0.23752
				0.238243
				0.239072
				0.239993
				0.240986
				0.242037
				0.243129
				0.244247
				0.245378
				0.246509
				0.247628
				0.248726
				0.249793
				0.250822
				0.251806
				0.252739
				0.253615
				0.254431
				0.255182
				0.255866
				0.256479
				0.25702
				0.257486
				0.257877
				0.258191
				0.258427
				0.258585
				0.258664
				0.258664
				0.258585
				0.258427
				0.258191
				0.257877
				0.257486
				0.25702
				0.256479
				0.255865
				0.255182
				0.25443
				0.253615
				0.252738
				0.251806
				0.250822
				0.249793
				0.248725
				0.247628
				0.246508
				0.245378
				0.244247
				0.243129
				0.242037
				0.240986
				0.239992
				0.239072
				0.238242
				0.237519
				0.236919
				0.236455
				0.236139
				0.235979
				0.235979
				0.236139
				0.236455
				0.236917
				0.237516
				0.238237
				0.239064
				0.239981
				0.240971
				0.242016
				0.243102
				0.244213
				0.245336
				0.246458
				0.247568
				0.248656
				0.249713
				0.250731
				0.251705
				0.252629
				0.253497
				0.254306
				0.255053
				0.255735
				0.25635
				0.256896
				0.257372
				0.257778
				0.258108
				0.258348
				0.258511
				0.258608
				0.257271
				0.257234
				0.25714
				0.256988
				0.25676
				0.256462
				0.256102
				0.255684
				0.255207
				0.254673
				0.254085
				0.253445
				0.252754
				0.252017
				0.251236
				0.250417
				0.249563
				0.248681
				0.247779
				0.246863
				0.245942
				0.245027
				0.244128
				0.243257
				0.242428
				0.241652
				0.240943
				0.240316
				0.239782
				0.239353
				0.23904
				0.238848
				0.238785
				0.23885
				0.239042
				0.239358
				0.239788
				0.240324
				0.240955
				0.241666
				0.242446
				0.24328
				0.244156
				0.24506
				0.245982
				0.246909
				0.247832
				0.248741
				0.24963
				0.250491
				0.251317
				0.252103
				0.252845
				0.253539
				0.254181
				0.254768
				0.255299
				0.255771
				0.256183
				0.256534
				0.256821
				0.257046
				0.257207
				0.257304
				0.257336
				0.257304
				0.257207
				0.257046
				0.256821
				0.256534
				0.256183
				0.255771
				0.255299
				0.254768
				0.254181
				0.253539
				0.252845
				0.252103
				0.251317
				0.25049
				0.24963
				0.248741
				0.247831
				0.246908
				0.245981
				0.24506
				0.244156
				0.24328
				0.242446
				0.241666
				0.240954
				0.240324
				0.239788
				0.239357
				0.239042
				0.238849
				0.238784
				0.238848
				0.239039
				0.239353
				0.239782
				0.240315
				0.240943
				0.241651
				0.242427
				0.243257
				0.244128
				0.245026
				0.245942
				0.246862
				0.247778
				0.248681
				0.249563
				0.250416
				0.251236
				0.252017
				0.252754
				0.253444
				0.254085
				0.254673
				0.255207
				0.255684
				0.256102
				0.256461
				0.25676
				0.256988
				0.25714
				0.257234
				0.25603
				0.255987
				0.255902
				0.255756
				0.255545
				0.25528
				0.254965
				0.254602
				0.254191
				0.253735
				0.253234
				0.252692
				0.252111
				0.251492
				0.25084
				0.250158
				0.249451
				0.248725
				0.247984
				0.247238
				0.246492
				0.245756
				0.245039
				0.244351
				0.243703
				0.243104
				0.242566
				0.2421
				0.241713
				0.241416
				0.241214
				0.241112
				0.241113
				0.241217
				0.241421
				0.241721
				0.242109
				0.242579
				0.24312
				0.243722
				0.244374
				0.245066
				0.245787
				0.246528
				0.247278
				0.24803
				0.248775
				0.249506
				0.250217
				0.250903
				0.251559
				0.25218
				0.252763
				0.253306
				0.253805
				0.254259
				0.254665
				0.255024
				0.255333
				0.255591
				0.255799
				0.255955
				0.256059
				0.256111
				0.256111
				0.256059
				0.255954
				0.255798
				0.255591
				0.255332
				0.255024
				0.254665
				0.254258
				0.253805
				0.253305
				0.252763
				0.25218
				0.251558
				0.250903
				0.250217
				0.249506
				0.248774
				0.248029
				0.247278
				0.246527
				0.245787
				0.245066
				0.244374
				0.243721
				0.243119
				0.242578
				0.242109
				0.24172
				0.241421
				0.241217
				0.241113
				0.241112
				0.241214
				0.241416
				0.241713
				0.242099
				0.242566
				0.243104
				0.243702
				0.244351
				0.245039
				0.245756
				0.246492
				0.247237
				0.247984
				0.248724
				0.249451
				0.250158
				0.25084
				0.251492
				0.25211
				0.252692
				0.253234
				0.253734
				0.254191
				0.254602
				0.254965
				0.25528
				0.255545
				0.255755
				0.255902
				0.255987
				0.25603
				0.25494
				0.254929
				0.254892
				0.25481
				0.254669
				0.254478
				0.254246
				0.253974
				0.253663
				0.253314
				0.252929
				0.252508
				0.252055
				0.25157
				0.251057
				0.250518
				0.249957
				0.249379
				0.248787
				0.248187
				0.247586
				0.24699
				0.246406
				0.245842
				0.245306
				0.244806
				0.244352
				0.243951
				0.24361
				0.243338
				0.24314
				0.243019
				0.242979
				0.243021
				0.243144
				0.243345
				0.24362
				0.243963
				0.244367
				0.244824
				0.245327
				0.245866
				0.246433
				0.247021
				0.247621
				0.248225
				0.248828
				0.249423
				0.250004
				0.250568
				0.251108
				0.251623
				0.252108
				0.252561
				0.252981
				0.253364
				0.25371
				0.254018
				0.254286
				0.254514
				0.254701
				0.254847
				0.254952
				0.255014
				0.255035
				0.255014
				0.254951
				0.254847
				0.254701
				0.254514
				0.254286
				0.254018
				0.25371
				0.253364
				0.25298
				0.252561
				0.252108
				0.251622
				0.251108
				0.250567
				0.250004
				0.249423
				0.248828
				0.248225
				0.247621
				0.247021
				0.246433
				0.245866
				0.245326
				0.244824
				0.244366
				0.243962
				0.243619
				0.243345
				0.243144
				0.243021
				0.242979
				0.243019
				0.243139
				0.243338
				0.24361
				0.24395
				0.244351
				0.244806
				0.245305
				0.245841
				0.246406
				0.24699
				0.247586
				0.248187
				0.248787
				0.249379
				0.249957
				0.250518
				0.251057
				0.25157
				0.252055
				0.252508
				0.252928
				0.253314
				0.253663
				0.253974
				0.254246
				0.254478
				0.254669
				0.254809
				0.254892
				0.254929
				0.253992
				0.253985
				0.25395
				0.253864
				0.253732
				0.253564
				0.253364
				0.253132
				0.252869
				0.252576
				0.252254
				0.251905
				0.251529
				0.25113
				0.250709
				0.250268
				0.249812
				0.249344
				0.248867
				0.248387
				0.247909
				0.247438
				0.24698
				0.246542
				0.24613
				0.245751
				0.245411
				0.245117
				0.244875
				0.244688
				0.244562
				0.244499
				0.2445
				0.244566
				0.244694
				0.244883
				0.245128
				0.245424
				0.245767
				0.246148
				0.246563
				0.247004
				0.247464
				0.247938
				0.248419
				0.248901
				0.24938
				0.24985
				0.250307
				0.250748
				0.25117
				0.251569
				0.251945
				0.252293
				0.252614
				0.252905
				0.253166
				0.253395
				0.253593
				0.253759
				0.253891
				0.253991
				0.254058
				0.254091
				0.254091
				0.254058
				0.253991
				0.253891
				0.253759
				0.253593
				0.253395
				0.253166
				0.252905
				0.252614
				0.252293
				0.251944
				0.251569
				0.25117
				0.250748
				0.250307
				0.249849
				0.249379
				0.248901
				0.248419
				0.247938
				0.247464
				0.247004
				0.246563
				0.246148
				0.245766
				0.245424
				0.245128
				0.244883
				0.244694
				0.244566
				0.2445
				0.244499
				0.244562
				0.244688
				0.244874
				0.245117
				0.245411
				0.24575
				0.246129
				0.246541
				0.24698
				0.247438
				0.247909
				0.248387
				0.248867
				0.249344
				0.249812
				0.250268
				0.250708
				0.25113
				0.251529
				0.251904
				0.252254
				0.252576
				0.252869
				0.253132
				0.253364
				0.253564
				0.253732
				0.253864
				0.25395
				0.253985
				0.253992
				0.253189
				0.253194
				0.253191
				0.253149
				0.253063
				0.252943
				0.252798
				0.252628
				0.252432
				0.252213
				0.251969
				0.251703
				0.251415
				0.251107
				0.250782
				0.250439
				0.250084
				0.249716
				0.249341
				0.248962
				0.248582
				0.248205
				0.247837
				0.247483
				0.247147
				0.246834
				0.246551
				0.246301
				0.24609
				0.245921
				0.245798
				0.245724
				0.2457
				0.245726
				0.245803
				0.245928
				0.246099
				0.246312
				0.246564
				0.24685
				0.247165
				0.247503
				0.24786
				0.24823
				0.248608
				0.248989
				0.24937
				0.249747
				0.250114
				0.250471
				0.250813
				0.251139
				0.251446
				0.251733
				0.251998
				0.252241
				0.252459
				0.252654
				0.252823
				0.252967
				0.253085
				0.253177
				0.253242
				0.253282
				0.253295
				0.253282
				0.253242
				0.253177
				0.253085
				0.252967
				0.252823
				0.252654
				0.252459
				0.252241
				0.251998
				0.251733
				0.251446
				0.251139
				0.250813
				0.250471
				0.250114
				0.249746
				0.24937
				0.248989
				0.248607
				0.248229
				0.247859
				0.247503
				0.247164
				0.24685
				0.246564
				0.246312
				0.246098
				0.245927
				0.245802
				0.245726
				0.245699
				0.245724
				0.245798
				0.245921
				0.246089
				0.246301
				0.24655
				0.246834
				0.247146
				0.247483
				0.247837
				0.248205
				0.248582
				0.248962
				0.249341
				0.249716
				0.250083
				0.250439
				0.250781
				0.251107
				0.251415
				0.251703
				0.251969
				0.252212
				0.252432
				0.252628
				0.252798
				0.252943
				0.253063
				0.253149
				0.253191
				0.253194
				0.252523
				0.252536
				0.252528
				0.252479
				0.252396
				0.252293
				0.25217
				0.252026
				0.251863
				0.251681
				0.25148
				0.251262
				0.251028
				0.250778
				0.250515
				0.25024
				0.249955
				0.249662
				0.249365
				0.249065
				0.248768
				0.248475
				0.248191
				0.247919
				0.247664
				0.24743
				0.247221
				0.247041
				0.246892
				0.246778
				0.246701
				0.246663
				0.246664
				0.246704
				0.246783
				0.246899
				0.24705
				0.247233
				0.247444
				0.247679
				0.247936
				0.248209
				0.248495
				0.248789
				0.249088
				0.249388
				0.249687
				0.24998
				0.250265
				0.25054
				0.250803
				0.251053
				0.251287
				0.251504
				0.251704
				0.251885
				0.252048
				0.252191
				0.252314
				0.252417
				0.252499
				0.252561
				0.252603
				0.252623
				0.252623
				0.252603
				0.252561
				0.252499
				0.252417
				0.252314
				0.252191
				0.252048
				0.251885
				0.251704
				0.251504
				0.251286
				0.251053
				0.250803
				0.25054
				0.250265
				0.24998
				0.249686
				0.249388
				0.249088
				0.248789
				0.248495
				0.248209
				0.247936
				0.247679
				0.247443
				0.247232
				0.24705
				0.246899
				0.246783
				0.246704
				0.246663
				0.246662
				0.246701
				0.246778
				0.246892
				0.24704
				0.247221
				0.24743
				0.247664
				0.247919
				0.24819
				0.248475
				0.248767
				0.249065
				0.249365
				0.249662
				0.249954
				0.250239
				0.250515
				0.250778
				0.251028
				0.251262
				0.25148
				0.251681
				0.251863
				0.252026
				0.25217
				0.252293
				0.252396
				0.252479
				0.252528
				0.252536
				0.252523
				0.251972
				0.251985
				0.251999
				0.25198
				0.251927
				0.251854
				0.251767
				0.251663
				0.251544
				0.251409
				0.251259
				0.251095
				0.250918
				0.250728
				0.250527
				0.250317
				0.250097
				0.249871
				0.24964
				0.249407
				0.249173
				0.248942
				0.248716
				0.248499
				0.248294
				0.248103
				0.24793
				0.247778
				0.24765
				0.247547
				0.247473
				0.247428
				0.247414
				0.24743
				0.247477
				0.247553
				0.247657
				0.247787
				0.247941
				0.248115
				0.248308
				0.248515
				0.248733
				0.24896
				0.249192
				0.249426
				0.249661
				0.249892
				0.250118
				0.250338
				0.250549
				0.250749
				0.250938
				0.251115
				0.251278
				0.251427
				0.251562
				0.251681
				0.251785
				0.251873
				0.251946
				0.252002
				0.252043
				0.252067
				0.252075
				0.252067
				0.252043
				0.252002
				0.251946
				0.251873
				0.251785
				0.251681
				0.251561
				0.251427
				0.251278
				0.251115
				0.250938
				0.250749
				0.250548
				0.250338
				0.250118
				0.249892
				0.24966
				0.249426
				0.249192
				0.24896
				0.248733
				0.248514
				0.248307
				0.248115
				0.247941
				0.247787
				0.247657
				0.247553
				0.247477
				0.24743
				0.247414
				0.247428
				0.247473
				0.247547
				0.24765
				0.247778
				0.24793
				0.248103
				0.248293
				0.248499
				0.248716
				0.248942
				0.249173
				0.249406
				0.24964
				0.249871
				0.250097
				0.250316
				0.250527
				0.250728
				0.250918
				0.251095
				0.251259
				0.251409
				0.251544
				0.251663
				0.251767
				0.251854
				0.251927
				0.25198
				0.251999
				0.251985
				0.251533
				0.251555
				0.251562
				0.251533
				0.251483
				0.251421
				0.251347
				0.251261
				0.251162
				0.251051
				0.250929
				0.250796
				0.250654
				0.250502
				0.250342
				0.250174
				0.250001
				0.249823
				0.249642
				0.24946
				0.24928
				0.249102
				0.24893
				0.248766
				0.248612
				0.248471
				0.248345
				0.248236
				0.248147
				0.248078
				0.248032
				0.248009
				0.24801
				0.248034
				0.248082
				0.248152
				0.248243
				0.248353
				0.248481
				0.248623
				0.248779
				0.248944
				0.249117
				0.249296
				0.249477
				0.249659
				0.249841
				0.250019
				0.250192
				0.25036
				0.25052
				0.250672
				0.250814
				0.250946
				0.251067
				0.251178
				0.251276
				0.251363
				0.251438
				0.251501
				0.251551
				0.251588
				0.251613
				0.251626
				0.251626
				0.251613
				0.251588
				0.251551
				0.251501
				0.251438
				0.251363
				0.251276
				0.251178
				0.251067
				0.250946
				0.250814
				0.250671
				0.25052
				0.25036
				0.250192
				0.250019
				0.249841
				0.249659
				0.249477
				0.249295
				0.249117
				0.248944
				0.248778
				0.248623
				0.248481
				0.248353
				0.248243
				0.248152
				0.248082
				0.248034
				0.24801
				0.248009
				0.248032
				0.248078
				0.248146
				0.248236
				0.248344
				0.248471
				0.248612
				0.248766
				0.24893
				0.249102
				0.24928
				0.24946
				0.249642
				0.249823
				0.250001
				0.250174
				0.250341
				0.250502
				0.250654
				0.250796
				0.250929
				0.251051
				0.251162
				0.251261
				0.251347
				0.251421
				0.251483
				0.251533
				0.251561
				0.251555
				0.251533
				0.251176
				0.251191
				0.251213