<VTKFile type="UnstructuredGrid" version="0.1" byte_order="LittleEndian">
<UnstructuredGrid>
	<Piece NumberOfPoints="288" NumberOfCells="512">
		<PointData Scalars="density" Vectors="velocity">
			<DataArray type="Float64" Name="density" Format="ascii">
				0.262484
				0.260487
				0.255448
				0.247551
				0.236626
				0.223739
				0.210784
				0.200583
				0.196835
				0.201356
				0.212024
				0.225471
				0.239151
				0.251341
				0.260848
				0.266868
				0.268926
				0.266868
				0.260848
				0.251341
				0.239152
				0.225472
				0.212025
				0.201356
				0.196836
				0.200584
				0.210785
				0.223739
				0.236626
				0.247552
				0.255448
				0.260487
				0.260986
				0.258366
				0.253952
				0.247467
				0.239207
				0.230188
				0.222018
				0.216984
				0.217157
				0.222437
				0.230816
				0.240195
				0.249071
				0.256449
				0.261688
				0.264399
				0.264399
				0.261688
				0.256449
				0.249071
				0.240195
				0.230816
				0.222437
				0.217158
				0.216985
				0.222018
				0.230189
				0.239208
				0.247467
				0.253952
				0.258366
				0.260986
				0.257323
				0.256568
				0.254759
				0.25197
				0.24816
				0.243739
				0.239374
				0.236039
				0.2348
				0.236162
				0.239647
				0.244229
				0.248938
				0.25309
				0.256271
				0.258251
				0.258922
				0.258251
				0.256271
				0.25309
				0.248938
				0.24423
				0.239648
				0.236162
				0.234801
				0.23604
				0.239374
				0.243739
				0.24816
				0.25197
				0.254759
				0.256568
				0.253191
				0.252798
				0.251926
				0.250488
				0.248673
				0.24675
				0.245091
				0.244129
				0.244179
				0.245248
				0.247028
				0.249087
				0.251049
				0.252661
				0.253785
				0.254358
				0.254358
				0.253785
				0.252661
				0.251049
				0.249088
				0.247028
				0.245248
				0.244179
				0.244129
				0.245091
				0.24675
				0.248673
				0.250488
				0.251926
				0.252798
				0.253191
				0.250931
				0.251037
				0.251025
				0.250615
				0.249964
				0.249222
				0.24852
				0.248018
				0.247854
				0.248083
				0.248645
				0.249397
				0.250182
				0.250876
				0.251404
				0.251731
				0.25184
				0.251731
				0.251405
				0.250876
				0.250182
				0.249397
				0.248645
				0.248083
				0.247854
				0.248018
				0.24852
				0.249222
				0.249964
				0.250615
				0.251025
				0.251037
				0.250102
				0.250347
				0.250334
				0.250117
				0.249861
				0.249604
				0.249396
				0.249288
				0.249311
				0.249463
				0.249708
				0.249989
				0.250258
				0.250478
				0.250631
				0.250708
				0.250708
				0.250631
				0.250478
				0.250258
				0.249989
				0.249708
				0.249463
				0.249311
				0.249288
				0.249396
				0.249604
				0.249861
				0.250117
				0.250334
				0.250347
				0.250102
				0.249833
				0.249994
				0.250132
				0.250071
				0.249985
				0.249904
				0.249831
				0.249783
				0.249774
				0.249808
				0.249879
				0.24997
				0.250065
				0.250147
				0.25021
				0.250248
				0.250261
				0.250248
				0.25021
				0.250147
				0.250065
				0.24997
				0.249879
				0.249808
				0.249774
				0.249783
				0.249831
				0.249904
				0.249985
				0.250071
				0.250132
				0.249994
				0.249868
				0.249995
				0.250016
				0.249986
				0.249966
				0.249947
				0.249936
				0.249935
				0.24995
				0.249977
				0.250013
				0.25005
				0.250084
				0.250112
				0.25013
				0.250139
				0.250139
				0.25013
				0.250112
				0.250084
				0.25005
				0.250013
				0.249977
				0.24995
				0.249935
				0.249936
				0.249947
				0.249966
				0.249986
				0.250016
				0.249995
				0.249868
				0.249857
				0.249928
				0.249992
				0.249984
				0.249971
				0.249964
				0.249961
				0.249964
				0.249976
				0.249997
				0.250024
				0.250052
				0.250079
				0.250101
				0.250116
				0.250126
				0.250129
				0.250126
				0.250116
				0.250101
				0.250079
				0.250052
				0.250024
				0.249997
				0.249976
				0.249964
				0.249961
				0.249964
				0.249971
				0.249984
				0.249992
				0.249928
			</DataArray>
			<DataArray type="Float64" Name="mach-number" Format="ascii">
				0.050766
				0.110762
				0.215602
				0.334587
				0.457339
				0.576631
				0.683745
				0.764072
				0.795211
				0.765792
				0.691125
				0.592267
				0.482035
				0.366982
				0.251027
				0.139693
				0.0703649
				0.139691
				0.251025
				0.366979
				0.482031
				0.592263
				0.69112
				0.765786
				0.795204
				0.764066
				0.683739
				0.576626
				0.457334
				0.334583
				0.215598
				0.110759
				0.137439
				0.20314
				0.288138
				0.375833
				0.46195
				0.541676
				0.607256
				0.646585
				0.647777
				0.610968
				0.547498
				0.469123
				0.384129
				0.298928
				0.221676
				0.169332
				0.169332
				0.221675
				0.298926
				0.384126
				0.46912
				0.547495
				0.610964
				0.647772
				0.64658
				0.607252
				0.541672
				0.461947
				0.37583
				0.288135
				0.203138
				0.137437
				0.226845
				0.252989
				0.300937
				0.34569
				0.390311
				0.435085
				0.475561
				0.505005
				0.516207
				0.5056
				0.476018
				0.434219
				0.387227
				0.341157
				0.301659
				0.274455
				0.264652
				0.274455
				0.301658
				0.341155
				0.387225
				0.434217
				0.476016
				0.505597
				0.516204
				0.505003
				0.475559
				0.435083
				0.390309
				0.345688
				0.300936
				0.252988
				0.304474
				0.331333
				0.353564
				0.371846
				0.392159
				0.412433
				0.429104
				0.438475
				0.438023
				0.427735
				0.410115
				0.388884
				0.367667
				0.349374
				0.336084
				0.329119
				0.329118
				0.336084
				0.349373
				0.367666
				0.388883
				0.410114
				0.427733
				0.438021
				0.438473
				0.429102
				0.412431
				0.392158
				0.371845
				0.353563
				0.331333
				0.304474
				0.34054
				0.351994
				0.366555
				0.373601
				0.380937
				0.389121
				0.396489
				0.401574
				0.403112
				0.400624
				0.394688
				0.386681
				0.378193
				0.370553
				0.364647
				0.360962
				0.359714
				0.360962
				0.364647
				0.370552
				0.378193
				0.38668
				0.394687
				0.400623
				0.403111
				0.401573
				0.396488
				0.38912
				0.380937
				0.3736
				0.366554
				0.351994
				0.36316
				0.373257
				0.377766
				0.379716
				0.382404
				0.385055
				0.387171
				0.38825
				0.387951
				0.386296
				0.383663
				0.38062
				0.377703
				0.375298
				0.373621
				0.372767
				0.372767
				0.373621
				0.375298
				0.377703
				0.380619
				0.383663
				0.386295
				0.387951
				0.388249
				0.38717
				0.385055
				0.382404
				0.379715
				0.377765
				0.373257
				0.36316
				0.370952
				0.375402
				0.379802
				0.380272
				0.380788
				0.381562
				0.382267
				0.382739
				0.382816
				0.38244
				0.381679
				0.3807
				0.379689
				0.378798
				0.378123
				0.377707
				0.377567
				0.377707
				0.378123
				0.378798
				0.379689
				0.380699
				0.381679
				0.382439
				0.382816
				0.382738
				0.382266
				0.381562
				0.380788
				0.380271
				0.379802
				0.375402
				0.376976
				0.379837
				0.380509
				0.380342
				0.380488
				0.380687
				0.380857
				0.380928
				0.380855
				0.380637
				0.380317
				0.379959
				0.379621
				0.379347
				0.379157
				0.379061
				0.379061
				0.379157
				0.379347
				0.379621
				0.379959
				0.380317
				0.380637
				0.380855
				0.380928
				0.380857
				0.380687
				0.380488
				0.380342
				0.380509
				0.379837
				0.376976
				0.377722
				0.379171
				0.380428
				0.380296
				0.380253
				0.380348
				0.380454
				0.380522
				0.380512
				0.380407
				0.380222
				0.379993
				0.379761
				0.379559
				0.379407
				0.379314
				0.379282
				0.379314
				0.379407
				0.379559
				0.379761
				0.379993
				0.380221
				0.380406
				0.380512
				0.380522
				0.380454
				0.380348
				0.380253
				0.380296
				0.380428
				0.379171
			</DataArray>
			<DataArray type="Float64" Name="pressure" Format="ascii">
				1.31509
				1.30687
				1.27814
				1.22484
				1.15044
				1.064
				0.978849
				0.913042
				0.888947
				0.917194
				0.98508
				1.07254
				1.16369
				1.24678
				1.3128
				1.35514
				1.36972
				1.35514
				1.3128
				1.24678
				1.1637
				1.07254
				0.985084
				0.917199
				0.888953
				0.913048
				0.978854
				1.064
				1.15044
				1.22485
				1.27814
				1.30687
				1.31254
				1.29964
				1.27023
				1.225
				1.16848
				1.10782
				1.05369
				1.02053
				1.02108
				1.05488
				1.10971
				1.17232
				1.23265
				1.28357
				1.32014
				1.33919
				1.33919
				1.32014
				1.28357
				1.23265
				1.17232
				1.10972
				1.05488
				1.02108
				1.02053
				1.0537
				1.10782
				1.16848
				1.225
				1.27023
				1.29964
				1.31254
				1.29124
				1.28757
				1.27531
				1.25455
				1.22737
				1.1965
				1.16643
				1.14363
				1.13504
				1.14394
				1.16725
				1.19824
				1.23043
				1.25909
				1.28119
				1.29503
				1.29973
				1.29503
				1.28119
				1.25909
				1.23044
				1.19825
				1.16725
				1.14394
				1.13504
				1.14363
				1.16643
				1.1965
				1.22737
				1.25455
				1.27531
				1.28757
				1.26389
				1.26014
				1.25225
				1.24119
				1.22814
				1.21464
				1.20315
				1.19653
				1.19686
				1.20416
				1.21636
				1.23052
				1.24407
				1.25525
				1.26308
				1.26707
				1.26707
				1.26308
				1.25526
				1.24407
				1.23052
				1.21636
				1.20416
				1.19686
				1.19654
				1.20315
				1.21464
				1.22814
				1.24119
				1.25225
				1.26014
				1.26389
				1.24774
				1.2471
				1.24481
				1.24103
				1.23632
				1.23115
				1.22632
				1.22289
				1.22179
				1.22339
				1.22727
				1.23247
				1.23791
				1.24272
				1.24639
				1.24866
				1.24942
				1.24866
				1.24639
				1.24272
				1.23791
				1.23247
				1.22727
				1.22339
				1.22179
				1.22289
				1.22632
				1.23115
				1.23632
				1.24103
				1.24481
				1.2471
				1.24028
				1.23985
				1.23878
				1.23729
				1.23558
				1.23385
				1.23243
				1.2317
				1.23187
				1.23292
				1.23462
				1.23657
				1.23843
				1.23996
				1.24102
				1.24155
				1.24155
				1.24102
				1.23996
				1.23843
				1.23657
				1.23462
				1.23293
				1.23187
				1.2317
				1.23243
				1.23385
				1.23558
				1.2373
				1.23878
				1.23985
				1.24028
				1.23763
				1.23762
				1.23742
				1.23701
				1.23651
				1.23596
				1.23547
				1.23514
				1.23508
				1.23532
				1.23581
				1.23644
				1.23709
				1.23766
				1.2381
				1.23837
				1.23845
				1.23837
				1.2381
				1.23766
				1.23709
				1.23644
				1.23581
				1.23532
				1.23508
				1.23514
				1.23547
				1.23596
				1.23651
				1.23701
				1.23742
				1.23762
				1.23666
				1.23671
				1.23666
				1.23654
				1.23641
				1.23628
				1.2362
				1.2362
				1.2363
				1.23648
				1.23673
				1.23699
				1.23723
				1.23742
				1.23755
				1.23761
				1.23761
				1.23755
				1.23742
				1.23723
				1.23699
				1.23673
				1.23648
				1.2363
				1.2362
				1.2362
				1.23628
				1.23641
				1.23654
				1.23666
				1.23671
				1.23666
				1.23643
				1.23649
				1.23654
				1.23651
				1.23645
				1.2364
				1.23637
				1.23639
				1.23648
				1.23662
				1.23681
				1.23701
				1.23719
				1.23734
				1.23745
				1.23751
				1.23754
				1.23751
				1.23745
				1.23734
				1.23719
				1.23701
				1.23681
				1.23662
				1.23648
				1.23639
				1.23637
				1.2364
				1.23645
				1.23651
				1.23654
				1.23649
			</DataArray>
			<DataArray type="Float64" Name="velocity" NumberOfComponents="3" Format="ascii">
				0.134451 -3.57357e-06 0.0 
				0.197466 -0.217202 0.0 
				0.369688 -0.434681 0.0 
				0.627997 -0.617321 0.0 
				0.951995 -0.719277 0.0 
				1.30795 -0.709223 0.0 
				1.64701 -0.571671 0.0 
				1.90363 -0.310856 0.0 
				1.99926 0.0343408 0.0 
				1.89627 0.379396 0.0 
				1.64132 0.642626 0.0 
				1.3102 0.787037 0.0 
				0.964592 0.807745 0.0 
				0.650315 0.715805 0.0 
				0.401544 0.531752 0.0 
				0.242533 0.282677 0.0 
				0.187897 3.39248e-06 0.0 
				0.242531 -0.28267 0.0 
				0.401542 -0.531745 0.0 
				0.650311 -0.715799 0.0 
				0.964585 -0.807739 0.0 
				1.31019 -0.787031 0.0 
				1.64131 -0.642621 0.0 
				1.89626 -0.379393 0.0 
				1.99925 -0.0343406 0.0 
				1.90362 0.310853 0.0 
				1.647 0.571666 0.0 
				1.30794 0.709216 0.0 
				0.951987 0.71927 0.0 
				0.627991 0.617313 0.0 
				0.369683 0.434673 0.0 
				0.197463 0.217194 0.0 
				0.354161 -0.0869873 0.0 
				0.476574 -0.251962 0.0 
				0.653452 -0.392914 0.0 
				0.860058 -0.489074 0.0 
				1.09099 -0.518757 0.0 
				1.32625 -0.466913 0.0 
				1.5308 -0.326879 0.0 
				1.65549 -0.110302 0.0 
				1.65613 0.13959 0.0 
				1.53248 0.360355 0.0 
				1.32662 0.507642 0.0 
				1.08764 0.566402 0.0 
				0.854852 0.539976 0.0 
				0.657002 0.441021 0.0 
				0.514312 0.287298 0.0 
				0.439778 0.0996025 0.0 
				0.439778 -0.0995966 0.0 
				0.514311 -0.287293 0.0 
				0.656999 -0.441015 0.0 
				0.854848 -0.53997 0.0 
				1.08764 -0.566397 0.0 
				1.32661 -0.507638 0.0 
				1.53247 -0.360352 0.0 
				1.65612 -0.139589 0.0 
				1.65548 0.1103 0.0 
				1.53079 0.326876 0.0 
				1.32624 0.466908 0.0 
				1.09098 0.518751 0.0 
				0.860053 0.489067 0.0 
				0.653448 0.392907 0.0 
				0.476571 0.251955 0.0 
				0.35416 0.0869805 0.0 
				0.601252 -2.66087e-06 0.0 
				0.662761 -0.102107 0.0 
				0.775574 -0.182164 0.0 
				0.880078 -0.241777 0.0 
				0.990142 -0.272895 0.0 
				1.10926 -0.265553 0.0 
				1.22372 -0.212975 0.0 
				1.31016 -0.115702 0.0 
				1.34286 0.0111709 0.0 
				1.30934 0.138414 0.0 
				1.22031 0.236566 0.0 
				1.1006 0.28941 0.0 
				0.975081 0.294636 0.0 
				0.862507 0.25826 0.0 
				0.775143 0.189898 0.0 
				0.720259 0.100236 0.0 
				0.701585 2.20018e-06 0.0 
				0.720259 -0.100232 0.0 
				0.775142 -0.189894 0.0 
				0.862505 -0.258256 0.0 
				0.975077 -0.294632 0.0 
				1.10059 -0.289407 0.0 
				1.22031 -0.236563 0.0 
				1.30934 -0.138413 0.0 
				1.34285 -0.0111711 0.0 
				1.31015 0.1157 0.0 
				1.22371 0.212972 0.0 
				1.10925 0.265549 0.0 
				0.990138 0.272891 0.0 
				0.880075 0.241772 0.0 
				0.775571 0.182159 0.0 
				0.662759 0.102102 0.0 
				0.804482 -0.0261772 0.0 
				0.87277 -0.0663312 0.0 
				0.927784 -0.0955904 0.0 
				0.972407 -0.116697 0.0 
				1.02397 -0.121737 0.0 
				1.07739 -0.10718 0.0 
				1.12261 -0.0720315 0.0 
				1.1484 -0.0204479 0.0 
				1.14683 0.0372838 0.0 
				1.11798 0.0880221 0.0 
				1.06991 0.121471 0.0 
				1.01397 0.133443 0.0 
				0.960304 0.125098 0.0 
				0.915909 0.100509 0.0 
				0.884787 0.0646277 0.0 
				0.868865 0.0222458 0.0 
				0.868865 -0.0222428 0.0 
				0.884786 -0.0646248 0.0 
				0.915908 -0.100506 0.0 
				0.960302 -0.125096 0.0 
				1.01397 -0.133441 0.0 
				1.0699 -0.12147 0.0 
				1.11798 -0.0880208 0.0 
				1.14683 -0.0372835 0.0 
				1.14839 0.0204473 0.0 
				1.12261 0.0720299 0.0 
				1.07739 0.107177 0.0 
				1.02397 0.121734 0.0 
				0.972405 0.116694 0.0 
				0.927783 0.095587 0.0 
				0.872769 0.0663279 0.0 
				0.804481 0.0261738 0.0 
				0.898499 -1.16215e-06 0.0 
				0.928071 -0.0199255 0.0 
				0.965323 -0.0309447 0.0 
				0.982824 -0.0413217 0.0 
				1.00132 -0.0466883 0.0 
				1.02235 -0.044396 0.0 
				1.04155 -0.0342367 0.0 
				1.05494 -0.0168731 0.0 
				1.05898 0.00476287 0.0 
				1.05233 0.0260617 0.0 
				1.03666 0.0424347 0.0 
				1.01581 0.0510465 0.0 
				0.994066 0.0513577 0.0 
				0.974808 0.0445148 0.0 
				0.96013 0.0324075 0.0 
				0.951064 0.0169882 0.0 
				0.948011 9.09276e-07 0.0 
				0.951064 -0.0169864 0.0 
				0.960129 -0.0324058 0.0 
				0.974807 -0.0445131 0.0 
				0.994065 -0.0513562 0.0 
				1.01581 -0.0510454 0.0 
				1.03666 -0.0424339 0.0 
				1.05233 -0.0260613 0.0 
				1.05897 -0.00476305 0.0 
				1.05493 0.0168723 0.0 
				1.04155 0.0342355 0.0 
				1.02235 0.0443944 0.0 
				1.00132 0.0466864 0.0 
				0.982823 0.0413195 0.0 
				0.965323 0.0309425 0.0 
				0.92807 0.0199233 0.0 
				0.956881 -0.00475468 0.0 
				0.982803 -0.00915289 0.0 
				0.99424 -0.0122168 0.0 
				0.999161 -0.0155289 0.0 
				1.00605 -0.0159123 0.0 
				1.01287 -0.0136314 0.0 
				1.01833 -0.00865901 0.0 
				1.02112 -0.00161339 0.0 
				1.02034 0.0061204 0.0 
				1.01605 0.0128602 0.0 
				1.00926 0.017261 0.0 
				1.00145 0.0187328 0.0 
				0.994008 0.0174206 0.0 
				0.987906 0.0139062 0.0 
				0.983669 0.00889836 0.0 
				0.981518 0.003055 0.0 
				0.981518 -0.00305399 0.0 
				0.983669 -0.00889738 0.0 
				0.987906 -0.0139053 0.0 
				0.994007 -0.0174198 0.0 
				1.00145 -0.0187322 0.0 
				1.00925 -0.0172605 0.0 
				1.01605 -0.01286 0.0 
				1.02034 -0.00612048 0.0 
				1.02112 0.001613 0.0 
				1.01833 0.00865833 0.0 
				1.01287 0.0136305 0.0 
				1.00605 0.0159112 0.0 
				0.99916 0.0155276 0.0 
				0.994239 0.0122155 0.0 
				0.982802 0.00915153 0.0 
				0.956881 0.00475327 0.0 
				0.976906 -5.09233e-07 0.0 
				0.988296 -0.00325579 0.0 
				0.999525 -0.00328022 0.0 
				1.00071 -0.00456403 0.0 
				1.00204 -0.00525837 0.0 
				1.00402 -0.00489537 0.0 
				1.00582 -0.00368687 0.0 
				1.00703 -0.00166072 0.0 
				1.00723 0.000824465 0.0 
				1.00626 0.00324489 0.0 
				1.00431 0.0050896 0.0 
				1.0018 0.00604051 0.0 
				0.999214 0.00603534 0.0 
				0.996942 0.00520753 0.0 
				0.99522 0.00377895 0.0 
				0.994161 0.00197696 0.0 
				0.993806 2.39829e-07 0.0 
				0.994161 -0.00197649 0.0 
				0.99522 -0.0037785 0.0 
				0.996941 -0.00520714 0.0 
				0.999214 -0.00603501 0.0 
				1.0018 -0.00604029 0.0 
				1.00431 -0.0050895 0.0 
				1.00626 -0.00324494 0.0 
				1.00723 -0.000824679 0.0 
				1.00703 0.00166034 0.0 
				1.00582 0.00368634 0.0 
				1.00402 0.0048947 0.0 
				1.00203 0.00525759 0.0 
				1.00071 0.00456315 0.0 
				0.999525 0.00327929 0.0 
				0.988296 0.00325482 0.0 
				0.99231 -0.00129385 0.0 
				0.999609 -0.00165966 0.0 
				1.00131 -0.00139533 0.0 
				1.00088 -0.00180717 0.0 
				1.00125 -0.0018236 0.0 
				1.00177 -0.00156277 0.0 
				1.0022 -0.00101121 0.0 
				1.00239 -0.000225188 0.0 
				1.00221 0.000640127 0.0 
				1.00166 0.00139799 0.0 
				1.00084 0.00189749 0.0 
				0.999929 0.00207056 0.0 
				0.99907 0.00193148 0.0 
				0.998369 0.00154458 0.0 
				0.997884 0.000989314 0.0 
				0.997639 0.000339819 0.0 
				0.997639 -0.000339639 0.0 
				0.997884 -0.000989147 0.0 
				0.998369 -0.00154444 0.0 
				0.999069 -0.00193138 0.0 
				0.999929 -0.00207052 0.0 
				1.00084 -0.00189752 0.0 
				1.00166 -0.0013981 0.0 
				1.00221 -0.000640332 0.0 
				1.00239 0.000224891 0.0 
				1.0022 0.00101084 0.0 
				1.00177 0.00156233 0.0 
				1.00125 0.00182313 0.0 
				1.00088 0.00180668 0.0 
				1.00131 0.00139484 0.0 
				0.999609 0.00165918 0.0 
				0.99231 0.00129337 0.0 
				0.994204 -1.4269e-07 0.0 
				0.9979 -0.0014718 0.0 
				1.0011 -0.00106565 0.0 
				1.00076 -0.00109713 0.0 
				1.00064 -0.00122412 0.0 
				1.00089 -0.00113162 0.0 
				1.00116 -0.000877215 0.0 
				1.00135 -0.000442044 0.0 
				1.00133 0.000104717 0.0 
				1.00107 0.000648518 0.0 
				1.0006 0.00107263 0.0 
				1.00002 0.00130135 0.0 
				0.999433 0.00131639 0.0 
				0.998919 0.00114473 0.0 
				0.998532 0.000834847 0.0 
				0.998294 0.000437993 0.0 
				0.998214 5.23768e-08 0.0 
				0.998294 -0.000437894 0.0 
				0.998532 -0.000834767 0.0 
				0.998919 -0.00114468 0.0 
				0.999433 -0.00131638 0.0 
				1.00002 -0.0013014 0.0 
				1.0006 -0.00107275 0.0 
				1.00107 -0.000648711 0.0 
				1.00133 -0.000104983 0.0 
				1.00134 0.000441716 0.0 
				1.00116 0.000876842 0.0 
				1.00089 0.00113123 0.0 
				1.00064 0.00122374 0.0 
				1.00076 0.00109677 0.0 
				1.0011 0.00106533 0.0 
				0.9979 0.00147151 0.0 
			</DataArray>
		</PointData>
		<Points>
		<DataArray type="Float64" NumberOfComponents="3" Format="ascii">
			0.5 0 0.0 
			0.490393 0.0975452 0.0 
			0.46194 0.191342 0.0 
			0.415735 0.277785 0.0 
			0.353553 0.353553 0.0 
			0.277785 0.415735 0.0 
			0.191342 0.46194 0.0 
			0.0975451 0.490393 0.0 
			-2.18557e-08 0.5 0.0 
			-0.0975452 0.490393 0.0 
			-0.191342 0.46194 0.0 
			-0.277785 0.415735 0.0 
			-0.353553 0.353553 0.0 
			-0.415735 0.277785 0.0 
			-0.46194 0.191342 0.0 
			-0.490393 0.0975451 0.0 
			-0.5 -4.37114e-08 0.0 
			-0.490393 -0.0975452 0.0 
			-0.46194 -0.191342 0.0 
			-0.415735 -0.277785 0.0 
			-0.353553 -0.353553 0.0 
			-0.277785 -0.415735 0.0 
			-0.191342 -0.46194 0.0 
			-0.0975451 -0.490393 0.0 
			6.55671e-08 -0.5 0.0 
			0.0975452 -0.490393 0.0 
			0.191342 -0.46194 0.0 
			0.277785 -0.415735 0.0 
			0.353553 -0.353553 0.0 
			0.415735 -0.277785 0.0 
			0.46194 -0.191342 0.0 
			0.490393 -0.0975451 0.0 
			0.640494 0.0630831 0.0 
			0.61588 0.186825 0.0 
			0.567598 0.303387 0.0 
			0.497504 0.408291 0.0 
			0.408291 0.497504 0.0 
			0.303387 0.567598 0.0 
			0.186825 0.61588 0.0 
			0.0630831 0.640494 0.0 
			-0.0630831 0.640494 0.0 
			-0.186825 0.61588 0.0 
			-0.303387 0.567598 0.0 
			-0.408291 0.497504 0.0 
			-0.497504 0.408291 0.0 
			-0.567598 0.303387 0.0 
			-0.61588 0.186825 0.0 
			-0.640494 0.0630831 0.0 
			-0.640494 -0.0630832 0.0 
			-0.61588 -0.186825 0.0 
			-0.567598 -0.303388 0.0 
			-0.497504 -0.408291 0.0 
			-0.408291 -0.497504 0.0 
			-0.303387 -0.567598 0.0 
			-0.186825 -0.61588 0.0 
			-0.063083 -0.640494 0.0 
			0.0630832 -0.640494 0.0 
			0.186825 -0.61588 0.0 
			0.303388 -0.567598 0.0 
			0.408291 -0.497504 0.0 
			0.497504 -0.408291 0.0 
			0.567598 -0.303387 0.0 
			0.61588 -0.186825 0.0 
			0.640494 -0.063083 0.0 
			0.901832 0 0.0 
			0.884503 0.175939 0.0 
			0.833184 0.345116 0.0 
			0.749846 0.501031 0.0 
			0.637691 0.637691 0.0 
			0.501031 0.749846 0.0 
			0.345116 0.833184 0.0 
			0.175939 0.884503 0.0 
			-3.94203e-08 0.901832 0.0 
			-0.175939 0.884503 0.0 
			-0.345116 0.833184 0.0 
			-0.501031 0.749846 0.0 
			-0.637691 0.637691 0.0 
			-0.749846 0.501031 0.0 
			-0.833184 0.345116 0.0 
			-0.884503 0.175939 0.0 
			-0.901832 -7.88406e-08 0.0 
			-0.884503 -0.175939 0.0 
			-0.833184 -0.345116 0.0 
			-0.749846 -0.501031 0.0 
			-0.637691 -0.637691 0.0 
			-0.501031 -0.749846 0.0 
			-0.345116 -0.833184 0.0 
			-0.175939 -0.884503 0.0 
			1.18261e-07 -0.901832 0.0 
			0.175939 -0.884503 0.0 
			0.345116 -0.833184 0.0 
			0.501031 -0.749846 0.0 
			0.637691 -0.637691 0.0 
			0.749846 -0.501031 0.0 
			0.833184 -0.345116 0.0 
			0.884503 -0.175938 0.0 
			1.35967 0.133916 0.0 
			1.30742 0.396602 0.0 
			1.20493 0.644047 0.0 
			1.05613 0.866742 0.0 
			0.866742 1.05613 0.0 
			0.644047 1.20493 0.0 
			0.396602 1.30742 0.0 
			0.133916 1.35967 0.0 
			-0.133916 1.35967 0.0 
			-0.396602 1.30742 0.0 
			-0.644047 1.20493 0.0 
			-0.866742 1.05613 0.0 
			-1.05613 0.866742 0.0 
			-1.20493 0.644047 0.0 
			-1.30742 0.396602 0.0 
			-1.35967 0.133916 0.0 
			-1.35967 -0.133916 0.0 
			-1.30742 -0.396602 0.0 
			-1.20493 -0.644047 0.0 
			-1.05613 -0.866742 0.0 
			-0.866742 -1.05613 0.0 
			-0.644047 -1.20493 0.0 
			-0.396602 -1.30742 0.0 
			-0.133916 -1.35967 0.0 
			0.133916 -1.35967 0.0 
			0.396602 -1.30742 0.0 
			0.644047 -1.20493 0.0 
			0.866742 -1.05613 0.0 
			1.05613 -0.866742 0.0 
			1.20493 -0.644047 0.0 
			1.30742 -0.396602 0.0 
			1.35967 -0.133916 0.0 
			2.20148 0 0.0 
			2.15917 0.429487 0.0 
			2.0339 0.842468 0.0 
			1.83046 1.22307 0.0 
			1.55668 1.55668 0.0 
			1.22307 1.83046 0.0 
			0.842468 2.0339 0.0 
			0.429486 2.15917 0.0 
			-9.62295e-08 2.20148 0.0 
			-0.429487 2.15917 0.0 
			-0.842468 2.0339 0.0 
			-1.22307 1.83046 0.0 
			-1.55668 1.55668 0.0 
			-1.83046 1.22307 0.0 
			-2.0339 0.842468 0.0 
			-2.15917 0.429486 0.0 
			-2.20148 -1.92459e-07 0.0 
			-2.15917 -0.429487 0.0 
			-2.0339 -0.842468 0.0 
			-1.83046 -1.22307 0.0 
			-1.55668 -1.55668 0.0 
			-1.22307 -1.83046 0.0 
			-0.842468 -2.0339 0.0 
			-0.429486 -2.15917 0.0 
			2.88689e-07 -2.20148 0.0 
			0.429487 -2.15917 0.0 
			0.842468 -2.0339 0.0 
			1.22307 -1.83046 0.0 
			1.55668 -1.55668 0.0 
			1.83046 -1.22307 0.0 
			2.0339 -0.842468 0.0 
			2.15917 -0.429486 0.0 
			3.68572 0.363012 0.0 
			3.54408 1.07508 0.0 
			3.26624 1.74584 0.0 
			2.86288 2.34951 0.0 
			2.34951 2.86288 0.0 
			1.74584 3.26624 0.0 
			1.07508 3.54408 0.0 
			0.363011 3.68572 0.0 
			-0.363012 3.68572 0.0 
			-1.07508 3.54408 0.0 
			-1.74584 3.26624 0.0 
			-2.34951 2.86288 0.0 
			-2.86288 2.34951 0.0 
			-3.26624 1.74584 0.0 
			-3.54408 1.07508 0.0 
			-3.68572 0.363011 0.0 
			-3.68572 -0.363012 0.0 
			-3.54408 -1.07508 0.0 
			-3.26624 -1.74584 0.0 
			-2.86288 -2.34951 0.0 
			-2.34951 -2.86288 0.0 
			-1.74584 -3.26624 0.0 
			-1.07508 -3.54408 0.0 
			-0.363011 -3.68572 0.0 
			0.363012 -3.68572 0.0 
			1.07508 -3.54408 0.0 
			1.74584 -3.26624 0.0 
			2.34951 -2.86288 0.0 
			2.86288 -2.34951 0.0 
			3.26624 -1.74584 0.0 
			3.54408 -1.07508 0.0 
			3.68572 -0.363011 0.0 
			6.40491 0 0.0 
			6.28184 1.24954 0.0 
			5.91737 2.45105 0.0 
			5.32549 3.55838 0.0 
			4.52896 4.52896 0.0 
			3.55838 5.32549 0.0 
			2.45105 5.91737 0.0 
			1.24954 6.28184 0.0 
			-2.79968e-07 6.40491 0.0 
			-1.24954 6.28184 0.0 
			-2.45105 5.91737 0.0 
			-3.55838 5.32549 0.0 
			-4.52896 4.52896 0.0 
			-5.32549 3.55838 0.0 
			-5.91737 2.45105 0.0 
			-6.28184 1.24954 0.0 
			-6.40491 -5.59935e-07 0.0 
			-6.28184 -1.24954 0.0 
			-5.91737 -2.45105 0.0 
			-5.32549 -3.55838 0.0 
			-4.52896 -4.52896 0.0 
			-3.55838 -5.32549 0.0 
			-2.45105 -5.91737 0.0 
			-1.24954 -6.28184 0.0 
			8.39903e-07 -6.40491 0.0 
			1.24954 -6.28184 0.0 
			2.45105 -5.91737 0.0 
			3.55838 -5.32549 0.0 
			4.52896 -4.52895 0.0 
			5.32549 -3.55838 0.0 
			5.91737 -2.45105 0.0 
			6.28184 -1.24953 0.0 
			11.2088 1.10397 0.0 
			10.7781 3.2695 0.0 
			9.93314 5.30938 0.0 
			8.70647 7.14522 0.0 
			7.14522 8.70647 0.0 
			5.30938 9.93314 0.0 
			3.2695 10.7781 0.0 
			1.10397 11.2088 0.0 
			-1.10397 11.2088 0.0 
			-3.2695 10.7781 0.0 
			-5.30938 9.93314 0.0 
			-7.14522 8.70647 0.0 
			-8.70647 7.14522 0.0 
			-9.93315 5.30938 0.0 
			-10.7781 3.2695 0.0 
			-11.2088 1.10397 0.0 
			-11.2088 -1.10398 0.0 
			-10.7781 -3.2695 0.0 
			-9.93314 -5.30938 0.0 
			-8.70647 -7.14522 0.0 
			-7.14522 -8.70648 0.0 
			-5.30938 -9.93315 0.0 
			-3.2695 -10.7781 0.0 
			-1.10397 -11.2088 0.0 
			1.10398 -11.2088 0.0 
			3.2695 -10.7781 0.0 
			5.30938 -9.93314 0.0 
			7.14522 -8.70647 0.0 
			8.70648 -7.14522 0.0 
			9.93315 -5.30937 0.0 
			10.7781 -3.2695 0.0 
			11.2088 -1.10397 0.0 
			20.0001 0 0.0 
			19.6158 3.90182 0.0 
			18.4777 7.6537 0.0 
			16.6295 11.1114 0.0 
			14.1422 14.1422 0.0 
			11.1114 16.6295 0.0 
			7.6537 18.4777 0.0 
			3.90182 19.6158 0.0 
			-8.74231e-07 20.0001 0.0 
			-3.90182 19.6158 0.0 
			-7.6537 18.4777 0.0 
			-11.1114 16.6295 0.0 
			-14.1422 14.1422 0.0 
			-16.6295 11.1114 0.0 
			-18.4777 7.65369 0.0 
			-19.6158 3.90182 0.0 
			-20.0001 -1.74846e-06 0.0 
			-19.6158 -3.90182 0.0 
			-18.4777 -7.6537 0.0 
			-16.6295 -11.1114 0.0 
			-14.1422 -14.1422 0.0 
			-11.1114 -16.6295 0.0 
			-7.65369 -18.4777 0.0 
			-3.90182 -19.6158 0.0 
			2.62269e-06 -20.0001 0.0 
			3.90182 -19.6158 0.0 
			7.6537 -18.4777 0.0 
			11.1114 -16.6295 0.0 
			14.1422 -14.1422 0.0 
			16.6295 -11.1114 0.0 
			18.4777 -7.65369 0.0 
			19.6158 -3.90182 0.0 
		</DataArray>
		</Points>
		<Cells>
			<DataArray type="UInt32" Name="connectivity" Format="ascii">
				0 32 1 
				0 63 32 
				1 33 2 
				1 32 33 
				2 34 3 
				2 33 34 
				3 35 4 
				3 34 35 
				4 36 5 
				4 35 36 
				5 37 6 
				5 36 37 
				6 38 7 
				6 37 38 
				7 39 8 
				7 38 39 
				8 40 9 
				8 39 40 
				9 41 10 
				9 40 41 
				10 42 11 
				10 41 42 
				11 43 12 
				11 42 43 
				12 44 13 
				12 43 44 
				13 45 14 
				13 44 45 
				14 46 15 
				14 45 46 
				15 47 16 
				15 46 47 
				16 48 17 
				16 47 48 
				17 49 18 
				17 48 49 
				18 50 19 
				18 49 50 
				19 51 20 
				19 50 51 
				20 52 21 
				20 51 52 
				21 53 22 
				21 52 53 
				22 54 23 
				22 53 54 
				23 55 24 
				23 54 55 
				24 56 25 
				24 55 56 
				25 57 26 
				25 56 57 
				26 58 27 
				26 57 58 
				27 59 28 
				27 58 59 
				28 60 29 
				28 59 60 
				29 61 30 
				29 60 61 
				30 62 31 
				30 61 62 
				31 63 0 
				31 62 63 
				32 64 65 
				32 63 64 
				33 65 66 
				33 32 65 
				34 66 67 
				34 33 66 
				35 67 68 
				35 34 67 
				36 68 69 
				36 35 68 
				37 69 70 
				37 36 69 
				38 70 71 
				38 37 70 
				39 71 72 
				39 38 71 
				40 72 73 
				40 39 72 
				41 73 74 
				41 40 73 
				42 74 75 
				42 41 74 
				43 75 76 
				43 42 75 
				44 76 77 
				44 43 76 
				45 77 78 
				45 44 77 
				46 78 79 
				46 45 78 
				47 79 80 
				47 46 79 
				48 80 81 
				48 47 80 
				49 81 82 
				49 48 81 
				50 82 83 
				50 49 82 
				51 83 84 
				51 50 83 
				52 84 85 
				52 51 84 
				53 85 86 
				53 52 85 
				54 86 87 
				54 53 86 
				55 87 88 
				55 54 87 
				56 88 89 
				56 55 88 
				57 89 90 
				57 56 89 
				58 90 91 
				58 57 90 
				59 91 92 
				59 58 91 
				60 92 93 
				60 59 92 
				61 93 94 
				61 60 93 
				62 94 95 
				62 61 94 
				63 95 64 
				63 62 95 
				64 96 65 
				64 127 96 
				65 97 66 
				65 96 97 
				66 98 67 
				66 97 98 
				67 99 68 
				67 98 99 
				68 100 69 
				68 99 100 
				69 101 70 
				69 100 101 
				70 102 71 
				70 101 102 
				71 103 72 
				71 102 103 
				72 104 73 
				72 103 104 
				73 105 74 
				73 104 105 
				74 106 75 
				74 105 106 
				75 107 76 
				75 106 107 
				76 108 77 
				76 107 108 
				77 109 78 
				77 108 109 
				78 110 79 
				78 109 110 
				79 111 80 
				79 110 111 
				80 112 81 
				80 111 112 
				81 113 82 
				81 112 113 
				82 114 83 
				82 113 114 
				83 115 84 
				83 114 115 
				84 116 85 
				84 115 116 
				85 117 86 
				85 116 117 
				86 118 87 
				86 117 118 
				87 119 88 
				87 118 119 
				88 120 89 
				88 119 120 
				89 121 90 
				89 120 121 
				90 122 91 
				90 121 122 
				91 123 92 
				91 122 123 
				92 124 93 
				92 123 124 
				93 125 94 
				93 124 125 
				94 126 95 
				94 125 126 
				95 127 64 
				95 126 127 
				96 128 129 
				96 127 128 
				97 129 130 
				97 96 129 
				98 130 131 
				98 97 130 
				99 131 132 
				99 98 131 
				100 132 133 
				100 99 132 
				101 133 134 