<VTKFile type="UnstructuredGrid" version="0.1" byte_order="LittleEndian">
<UnstructuredGrid>
	<Piece NumberOfPoints="288" NumberOfCells="512">
		<PointData Scalars="density" Vectors="velocity">
			<DataArray type="Float64" Name="density" Format="ascii">
				0.262483
				0.260487
				0.255447
				0.247551
				0.236625
				0.223738
				0.210783
				0.200581
				0.196833
				0.201355
				0.212024
				0.225471
				0.239152
				0.251341
				0.260848
				0.266868
				0.268926
				0.266868
				0.260848
				0.251341
				0.239152
				0.225472
				0.212024
				0.201355
				0.196833
				0.200581
				0.210783
				0.223738
				0.236625
				0.247551
				0.255448
				0.260487
				0.260985
				0.258365
				0.253951
				0.247467
				0.239207
				0.230188
				0.222016
				0.216983
				0.217156
				0.222436
				0.230816
				0.240195
				0.249071
				0.256449
				0.261688
				0.264399
				0.264399
				0.261688
				0.256449
				0.249071
				0.240195
				0.230816
				0.222436
				0.217156
				0.216983
				0.222017
				0.230188
				0.239207
				0.247467
				0.253951
				0.258365
				0.260985
				0.257323
				0.256568
				0.254758
				0.251969
				0.248159
				0.243738
				0.239373
				0.236039
				0.234799
				0.236161
				0.239647
				0.244229
				0.248938
				0.25309
				0.256271
				0.258251
				0.258922
				0.258251
				0.256271
				0.253091
				0.248938
				0.244229
				0.239647
				0.236161
				0.2348
				0.236039
				0.239373
				0.243738
				0.248159
				0.251969
				0.254759
				0.256568
				0.253191
				0.252798
				0.251926
				0.250488
				0.248673
				0.24675
				0.245091
				0.244129
				0.244179
				0.245248
				0.247028
				0.249087
				0.251049
				0.252661
				0.253785
				0.254358
				0.254358
				0.253785
				0.252661
				0.251049
				0.249088
				0.247028
				0.245248
				0.244179
				0.244129
				0.245091
				0.24675
				0.248673
				0.250488
				0.251926
				0.252798
				0.253191
				0.250931
				0.251037
				0.251025
				0.250615
				0.249964
				0.249222
				0.24852
				0.248018
				0.247854
				0.248083
				0.248644
				0.249397
				0.250182
				0.250876
				0.251404
				0.25173
				0.25184
				0.25173
				0.251404
				0.250876
				0.250182
				0.249397
				0.248644
				0.248083
				0.247854
				0.248018
				0.24852
				0.249222
				0.249964
				0.250615
				0.251025
				0.251037
				0.250102
				0.250347
				0.250334
				0.250117
				0.249861
				0.249604
				0.249396
				0.249287
				0.249311
				0.249463
				0.249708
				0.249989
				0.250258
				0.250478
				0.250631
				0.250708
				0.250708
				0.250631
				0.250478
				0.250258
				0.249989
				0.249708
				0.249463
				0.249311
				0.249287
				0.249396
				0.249604
				0.249861
				0.250117
				0.250334
				0.250347
				0.250102
				0.249833
				0.249994
				0.250132
				0.250071
				0.249985
				0.249904
				0.249831
				0.249783
				0.249774
				0.249808
				0.249879
				0.24997
				0.250064
				0.250147
				0.25021
				0.250248
				0.250261
				0.250248
				0.25021
				0.250147
				0.250064
				0.24997
				0.249879
				0.249808
				0.249774
				0.249783
				0.249831
				0.249904
				0.249985
				0.250071
				0.250132
				0.249994
				0.249868
				0.249995
				0.250016
				0.249986
				0.249965
				0.249947
				0.249935
				0.249935
				0.249949
				0.249977
				0.250012
				0.25005
				0.250084
				0.250111
				0.25013
				0.250139
				0.250139
				0.25013
				0.250111
				0.250084
				0.25005
				0.250012
				0.249977
				0.249949
				0.249935
				0.249935
				0.249947
				0.249965
				0.249986
				0.250016
				0.249995
				0.249868
				0.249857
				0.249928
				0.249992
				0.249984
				0.249971
				0.249964
				0.249961
				0.249964
				0.249976
				0.249997
				0.250023
				0.250052
				0.250079
				0.2501
				0.250116
				0.250125
				0.250129
				0.250125
				0.250116
				0.2501
				0.250079
				0.250052
				0.250024
				0.249997
				0.249976
				0.249964
				0.249961
				0.249964
				0.249971
				0.249984
				0.249992
				0.249928
			</DataArray>
			<DataArray type="Float64" Name="mach-number" Format="ascii">
				0.0507655
				0.110761
				0.2156
				0.334586
				0.457338
				0.576631
				0.683748
				0.764079
				0.795217
				0.765794
				0.691124
				0.592265
				0.482033
				0.36698
				0.251026
				0.139692
				0.0703646
				0.139691
				0.251025
				0.366979
				0.482031
				0.592263
				0.691121
				0.765791
				0.795214
				0.764076
				0.683745
				0.576628
				0.457336
				0.334584
				0.215598
				0.110759
				0.137437
				0.203139
				0.288137
				0.375832
				0.46195
				0.541677
				0.60726
				0.64659
				0.64778
				0.610968
				0.547497
				0.469121
				0.384127
				0.298927
				0.221675
				0.169331
				0.169331
				0.221674
				0.298926
				0.384126
				0.46912
				0.547496
				0.610967
				0.647778
				0.646588
				0.607258
				0.541675
				0.461948
				0.37583
				0.288136
				0.203138
				0.137437
				0.226843
				0.252987
				0.300935
				0.345689
				0.39031
				0.435086
				0.475563
				0.505008
				0.51621
				0.505601
				0.476019
				0.434218
				0.387226
				0.341156
				0.301658
				0.274454
				0.264651
				0.274454
				0.301658
				0.341155
				0.387225
				0.434217
				0.476018
				0.5056
				0.516208
				0.505007
				0.475562
				0.435084
				0.390309
				0.345688
				0.300935
				0.252987
				0.304472
				0.331332
				0.353562
				0.371845
				0.392159
				0.412433
				0.429105
				0.438477
				0.438024
				0.427735
				0.410116
				0.388884
				0.367667
				0.349373
				0.336083
				0.329118
				0.329118
				0.336083
				0.349373
				0.367666
				0.388883
				0.410115
				0.427735
				0.438023
				0.438476
				0.429104
				0.412432
				0.392159
				0.371844
				0.353562
				0.331331
				0.304472
				0.340538
				0.351992
				0.366553
				0.373599
				0.380936
				0.38912
				0.396489
				0.401574
				0.403113
				0.400624
				0.394688
				0.386682
				0.378193
				0.370553
				0.364647
				0.360962
				0.359715
				0.360962
				0.364647
				0.370553
				0.378193
				0.386681
				0.394688
				0.400624
				0.403112
				0.401574
				0.396489
				0.38912
				0.380936
				0.373599
				0.366553
				0.351992
				0.363158
				0.373256
				0.377764
				0.379715
				0.382403
				0.385055
				0.387171
				0.38825
				0.387952
				0.386296
				0.383664
				0.38062
				0.377704
				0.375299
				0.373622
				0.372768
				0.372768
				0.373622
				0.375299
				0.377703
				0.38062
				0.383664
				0.386296
				0.387952
				0.38825
				0.387171
				0.385055
				0.382403
				0.379714
				0.377764
				0.373256
				0.363158
				0.370951
				0.375401
				0.379801
				0.38027
				0.380787
				0.381562
				0.382266
				0.382739
				0.382817
				0.38244
				0.38168
				0.3807
				0.379689
				0.378799
				0.378124
				0.377708
				0.377568
				0.377708
				0.378124
				0.378799
				0.379689
				0.3807
				0.38168
				0.38244
				0.382816
				0.382739
				0.382266
				0.381562
				0.380787
				0.38027
				0.379801
				0.375401
				0.376975
				0.379836
				0.380508
				0.380341
				0.380487
				0.380687
				0.380857
				0.380929
				0.380855
				0.380637
				0.380318
				0.379959
				0.379622
				0.379348
				0.379158
				0.379061
				0.379061
				0.379158
				0.379348
				0.379622
				0.379959
				0.380318
				0.380637
				0.380855
				0.380928
				0.380857
				0.380687
				0.380487
				0.380341
				0.380508
				0.379836
				0.376975
				0.377722
				0.37917
				0.380428
				0.380296
				0.380252
				0.380348
				0.380454
				0.380522
				0.380512
				0.380407
				0.380222
				0.379993
				0.379762
				0.37956
				0.379408
				0.379314
				0.379283
				0.379314
				0.379408
				0.37956
				0.379762
				0.379993
				0.380222
				0.380407
				0.380512
				0.380522
				0.380454
				0.380348
				0.380252
				0.380296
				0.380428
				0.37917
			</DataArray>
			<DataArray type="Float64" Name="pressure" Format="ascii">
				1.31509
				1.30686
				1.27813
				1.22484
				1.15043
				1.06399
				0.978841
				0.91303
				0.888936
				0.917188
				0.985078
				1.07254
				1.16369
				1.24678
				1.3128
				1.35514
				1.36972
				1.35514
				1.3128
				1.24678
				1.1637
				1.07254
				0.98508
				0.917191
				0.888939
				0.913033
				0.978844
				1.064
				1.15043
				1.22484
				1.27813
				1.30687
				1.31254
				1.29963
				1.27023
				1.225
				1.16847
				1.10781
				1.05369
				1.02052
				1.02107
				1.05488
				1.10971
				1.17232
				1.23265
				1.28357
				1.32014
				1.3392
				1.3392
				1.32014
				1.28357
				1.23265
				1.17232
				1.10971
				1.05488
				1.02107
				1.02052
				1.05369
				1.10782
				1.16847
				1.225
				1.27023
				1.29963
				1.31254
				1.29124
				1.28757
				1.27531
				1.25455
				1.22736
				1.1965
				1.16642
				1.14363
				1.13504
				1.14393
				1.16724
				1.19824
				1.23043
				1.25909
				1.28119
				1.29503
				1.29973
				1.29503
				1.28119
				1.25909
				1.23044
				1.19824
				1.16725
				1.14393
				1.13504
				1.14363
				1.16643
				1.1965
				1.22736
				1.25455
				1.27531
				1.28757
				1.26389
				1.26013
				1.25225
				1.24119
				1.22814
				1.21463
				1.20315
				1.19653
				1.19686
				1.20416
				1.21635
				1.23052
				1.24407
				1.25526
				1.26308
				1.26708
				1.26708
				1.26308
				1.25526
				1.24407
				1.23052
				1.21636
				1.20416
				1.19686
				1.19653
				1.20315
				1.21463
				1.22814
				1.24119
				1.25225
				1.26014
				1.26389
				1.24774
				1.2471
				1.24481
				1.24103
				1.23632
				1.23115
				1.22632
				1.22289
				1.22179
				1.22339
				1.22727
				1.23247
				1.23791
				1.24272
				1.24639
				1.24866
				1.24942
				1.24866
				1.24639
				1.24272
				1.23791
				1.23247
				1.22727
				1.22339
				1.22179
				1.22289
				1.22632
				1.23115
				1.23632
				1.24103
				1.24481
				1.2471
				1.24028
				1.23985
				1.23878
				1.2373
				1.23558
				1.23385
				1.23243
				1.2317
				1.23186
				1.23292
				1.23462
				1.23657
				1.23843
				1.23995
				1.24101
				1.24155
				1.24155
				1.24101
				1.23995
				1.23843
				1.23657
				1.23462
				1.23292
				1.23186
				1.2317
				1.23243
				1.23385
				1.23558
				1.2373
				1.23878
				1.23985
				1.24028
				1.23763
				1.23762
				1.23742
				1.23701
				1.23651
				1.23596
				1.23547
				1.23514
				1.23508
				1.23532
				1.23581
				1.23644
				1.23709
				1.23766
				1.2381
				1.23836
				1.23845
				1.23836
				1.2381
				1.23766
				1.23709
				1.23644
				1.23581
				1.23532
				1.23508
				1.23514
				1.23547
				1.23596
				1.23651
				1.23701
				1.23742
				1.23762
				1.23666
				1.23671
				1.23666
				1.23654
				1.23641
				1.23628
				1.2362
				1.2362
				1.23629
				1.23648
				1.23673
				1.23699
				1.23723
				1.23742
				1.23754
				1.23761
				1.23761
				1.23754
				1.23742
				1.23723
				1.23699
				1.23673
				1.23648
				1.23629
				1.2362
				1.2362
				1.23628
				1.23641
				1.23654
				1.23666
				1.23671
				1.23666
				1.23643
				1.23649
				1.23654
				1.23651
				1.23645
				1.2364
				1.23637
				1.23639
				1.23648
				1.23662
				1.23681
				1.237
				1.23719
				1.23734
				1.23745
				1.23751
				1.23753
				1.23751
				1.23745
				1.23734
				1.23719
				1.237
				1.23681
				1.23662
				1.23648
				1.23639
				1.23637
				1.2364
				1.23645
				1.23651
				1.23654
				1.23649
			</DataArray>
			<DataArray type="Float64" Name="velocity" NumberOfComponents="3" Format="ascii">
				0.13445 -1.94063e-06 0.0 
				0.197464 -0.217199 0.0 
				0.369685 -0.434679 0.0 
				0.627994 -0.617319 0.0 
				0.951992 -0.719276 0.0 
				1.30795 -0.709224 0.0 
				1.64701 -0.571674 0.0 
				1.90364 -0.31086 0.0 
				1.99927 0.0343425 0.0 
				1.89627 0.3794 0.0 
				1.64132 0.642627 0.0 
				1.3102 0.787035 0.0 
				0.964587 0.807742 0.0 
				0.650311 0.715802 0.0 
				0.401541 0.531749 0.0 
				0.242531 0.282674 0.0 
				0.187896 1.45806e-06 0.0 
				0.242531 -0.282671 0.0 
				0.401542 -0.531746 0.0 
				0.65031 -0.715799 0.0 
				0.964584 -0.807739 0.0 
				1.31019 -0.787033 0.0 
				1.64131 -0.642624 0.0 
				1.89627 -0.379398 0.0 
				1.99927 -0.0343424 0.0 
				1.90364 0.310858 0.0 
				1.64701 0.571671 0.0 
				1.30794 0.70922 0.0 
				0.951988 0.719273 0.0 
				0.627991 0.617314 0.0 
				0.369683 0.434674 0.0 
				0.197463 0.217195 0.0 
				0.354158 -0.0869859 0.0 
				0.476571 -0.251961 0.0 
				0.653449 -0.392913 0.0 
				0.860055 -0.489074 0.0 
				1.09099 -0.518759 0.0 
				1.32625 -0.466917 0.0 
				1.5308 -0.326883 0.0 
				1.6555 -0.110302 0.0 
				1.65614 0.139594 0.0 
				1.53248 0.360359 0.0 
				1.32661 0.507644 0.0 
				1.08764 0.566402 0.0 
				0.854848 0.539974 0.0 
				0.656998 0.441019 0.0 
				0.514309 0.287296 0.0 
				0.439776 0.0996008 0.0 
				0.439775 -0.0995981 0.0 
				0.514309 -0.287294 0.0 
				0.656997 -0.441017 0.0 
				0.854846 -0.539972 0.0 
				1.08764 -0.5664 0.0 
				1.32661 -0.507642 0.0 
				1.53247 -0.360358 0.0 
				1.65613 -0.139593 0.0 
				1.65549 0.110302 0.0 
				1.5308 0.326881 0.0 
				1.32624 0.466914 0.0 
				1.09098 0.518756 0.0 
				0.860053 0.489071 0.0 
				0.653447 0.39291 0.0 
				0.476569 0.251957 0.0 
				0.354157 0.0869822 0.0 
				0.601247 -1.38422e-06 0.0 
				0.662756 -0.102107 0.0 
				0.775569 -0.182165 0.0 
				0.880074 -0.241779 0.0 
				0.990139 -0.272898 0.0 
				1.10925 -0.265556 0.0 
				1.22372 -0.212978 0.0 
				1.31016 -0.115703 0.0 
				1.34286 0.0111723 0.0 
				1.30935 0.138417 0.0 
				1.22031 0.236569 0.0 
				1.10059 0.289412 0.0 
				0.975078 0.294637 0.0 
				0.862504 0.25826 0.0 
				0.77514 0.189898 0.0 
				0.720256 0.100235 0.0 
				0.701583 1.011e-06 0.0 
				0.720256 -0.100233 0.0 
				0.77514 -0.189896 0.0 
				0.862503 -0.258258 0.0 
				0.975076 -0.294636 0.0 
				1.10059 -0.289411 0.0 
				1.22031 -0.236568 0.0 
				1.30934 -0.138417 0.0 
				1.34286 -0.0111724 0.0 
				1.31016 0.115702 0.0 
				1.22372 0.212977 0.0 
				1.10925 0.265554 0.0 
				0.990138 0.272896 0.0 
				0.880073 0.241776 0.0 
				0.775568 0.182163 0.0 
				0.662755 0.102104 0.0 
				0.804477 -0.026177 0.0 
				0.872765 -0.0663323 0.0 
				0.92778 -0.0955925 0.0 
				0.972404 -0.1167 0.0 
				1.02397 -0.12174 0.0 
				1.07739 -0.107183 0.0 
				1.12262 -0.0720339 0.0 
				1.1484 -0.0204486 0.0 
				1.14683 0.0372849 0.0 
				1.11799 0.0880242 0.0 
				1.06991 0.121474 0.0 
				1.01397 0.133445 0.0 
				0.960302 0.125099 0.0 
				0.915907 0.10051 0.0 
				0.884785 0.0646277 0.0 
				0.868863 0.0222453 0.0 
				0.868863 -0.0222439 0.0 
				0.884784 -0.0646264 0.0 
				0.915906 -0.100509 0.0 
				0.960301 -0.125098 0.0 
				1.01397 -0.133444 0.0 
				1.0699 -0.121473 0.0 
				1.11798 -0.0880236 0.0 
				1.14683 -0.0372848 0.0 
				1.1484 0.0204483 0.0 
				1.12261 0.0720331 0.0 
				1.07739 0.107182 0.0 
				1.02397 0.121739 0.0 
				0.972403 0.116698 0.0 
				0.927779 0.0955909 0.0 
				0.872765 0.0663307 0.0 
				0.804476 0.0261753 0.0 
				0.898494 -5.60792e-07 0.0 
				0.928066 -0.019926 0.0 
				0.965319 -0.0309463 0.0 
				0.98282 -0.0413241 0.0 
				1.00131 -0.0466912 0.0 
				1.02235 -0.044399 0.0 
				1.04155 -0.0342394 0.0 
				1.05494 -0.016875 0.0 
				1.05898 0.00476193 0.0 
				1.05233 0.0260615 0.0 
				1.03666 0.0424351 0.0 
				1.01581 0.051047 0.0 
				0.994067 0.051358 0.0 
				0.974809 0.0445149 0.0 
				0.96013 0.0324074 0.0 
				0.951064 0.0169879 0.0 
				0.948011 4.16791e-07 0.0 
				0.951064 -0.016987 0.0 
				0.960129 -0.0324066 0.0 
				0.974808 -0.0445141 0.0 
				0.994066 -0.0513573 0.0 
				1.01581 -0.0510464 0.0 
				1.03666 -0.0424347 0.0 
				1.05233 -0.0260614 0.0 
				1.05898 -0.00476201 0.0 
				1.05494 0.0168746 0.0 
				1.04155 0.0342387 0.0 
				1.02235 0.0443982 0.0 
				1.00131 0.0466903 0.0 
				0.98282 0.041323 0.0 
				0.965318 0.0309452 0.0 
				0.928065 0.019925 0.0 
				0.956877 -0.0047548 0.0 
				0.982798 -0.00915395 0.0 
				0.994236 -0.0122186 0.0 
				0.999158 -0.0155312 0.0 
				1.00605 -0.0159149 0.0 
				1.01287 -0.0136339 0.0 
				1.01833 -0.00866117 0.0 
				1.02112 -0.00161504 0.0 
				1.02034 0.0061193 0.0 
				1.01605 0.0128596 0.0 
				1.00926 0.0172606 0.0 
				1.00145 0.0187326 0.0 
				0.994009 0.0174204 0.0 
				0.987907 0.013906 0.0 
				0.98367 0.00889815 0.0 
				0.981519 0.00305474 0.0 
				0.981519 -0.00305428 0.0 
				0.98367 -0.00889769 0.0 
				0.987907 -0.0139056 0.0 
				0.994008 -0.0174201 0.0 
				1.00145 -0.0187323 0.0 
				1.00926 -0.0172604 0.0 
				1.01605 -0.0128595 0.0 
				1.02034 -0.00611934 0.0 
				1.02112 0.00161485 0.0 
				1.01833 0.00866084 0.0 
				1.01287 0.0136335 0.0 
				1.00605 0.0159143 0.0 
				0.999157 0.0155306 0.0 
				0.994235 0.012218 0.0 
				0.982798 0.00915328 0.0 
				0.956877 0.00475411 0.0 
				0.976904 -2.45168e-07 0.0 
				0.988293 -0.00325613 0.0 
				0.999522 -0.00328117 0.0 
				1.00071 -0.00456539 0.0 
				1.00203 -0.00525994 0.0 
				1.00402 -0.00489701 0.0 
				1.00582 -0.0036885 0.0 
				1.00703 -0.00166228 0.0 
				1.00723 0.000822992 0.0 
				1.00626 0.0032435 0.0 
				1.00431 0.00508829 0.0 
				1.0018 0.0060393 0.0 
				0.999216 0.00603426 0.0 
				0.996944 0.00520663 0.0 
				0.995222 0.00377828 0.0 
				0.994164 0.00197655 0.0 
				0.993809 1.10991e-07 0.0 
				0.994164 -0.00197634 0.0 
				0.995222 -0.00377807 0.0 
				0.996944 -0.00520646 0.0 
				0.999216 -0.0060341 0.0 
				1.0018 -0.0060392 0.0 
				1.00431 -0.00508825 0.0 
				1.00626 -0.00324353 0.0 
				1.00723 -0.000823095 0.0 
				1.00703 0.0016621 0.0 
				1.00582 0.00368824 0.0 
				1.00402 0.00489669 0.0 
				1.00203 0.00525956 0.0 
				1.00071 0.00456497 0.0 
				0.999522 0.00328073 0.0 
				0.988293 0.00325566 0.0 
				0.992308 -0.00129395 0.0 
				0.999607 -0.00166032 0.0 
				1.00131 -0.00139649 0.0 
				1.00088 -0.00180857 0.0 
				1.00125 -0.00182514 0.0 
				1.00176 -0.00156439 0.0 
				1.0022 -0.0010129 0.0 
				1.00239 -0.000226905 0.0 
				1.00221 0.000638444 0.0 
				1.00166 0.00139641 0.0 
				1.00084 0.00189608 0.0 
				0.999931 0.00206936 0.0 
				0.999071 0.00193052 0.0 
				0.998371 0.00154387 0.0 
				0.997887 0.000988857 0.0 
				0.997641 0.000339632 0.0 
				0.997641 -0.000339549 0.0 
				0.997887 -0.00098878 0.0 
				0.998371 -0.0015438 0.0 
				0.999071 -0.00193047 0.0 
				0.999931 -0.00206934 0.0 
				1.00084 -0.00189609 0.0 
				1.00166 -0.00139646 0.0 
				1.00221 -0.000638542 0.0 
				1.00239 0.000226763 0.0 
				1.0022 0.00101272 0.0 
				1.00176 0.00156418 0.0 
				1.00125 0.00182491 0.0 
				1.00088 0.00180834 0.0 
				1.00131 0.00139626 0.0 
				0.999607 0.0016601 0.0 
				0.992308 0.00129373 0.0 
				0.994202 -6.37266e-08 0.0 
				0.997898 -0.00147223 0.0 
				1.0011 -0.00106664 0.0 
				1.00076 -0.00109849 0.0 
				1.00064 -0.00122566 0.0 
				1.00089 -0.00113328 0.0 
				1.00116 -0.000878956 0.0 
				1.00135 -0.000443826 0.0 
				1.00133 0.00010297 0.0 
				1.00107 0.000646894 0.0 
				1.0006 0.00107121 0.0 
				1.00002 0.00130017 0.0 
				0.999435 0.00131547 0.0 
				0.998921 0.00114405 0.0 
				0.998534 0.000834386 0.0 
				0.998296 0.000437747 0.0 
				0.998216 2.39851e-08 0.0 
				0.998296 -0.000437701 0.0 
				0.998534 -0.000834349 0.0 
				0.998921 -0.00114402 0.0 
				0.999434 -0.00131547 0.0 
				1.00002 -0.00130019 0.0 
				1.0006 -0.00107126 0.0 
				1.00107 -0.000646985 0.0 
				1.00133 -0.000103096 0.0 
				1.00135 0.000443669 0.0 
				1.00116 0.000878778 0.0 
				1.00089 0.00113309 0.0 
				1.00064 0.00122548 0.0 
				1.00076 0.00109832 0.0 
				1.0011 0.00106649 0.0 
				0.997898 0.0014721 0.0 
			</DataArray>
		</PointData>
		<Points>
		<DataArray type="Float64" NumberOfComponents="3" Format="ascii">
			0.5 0 0.0 
			0.490393 0.0975452 0.0 
			0.46194 0.191342 0.0 
			0.415735 0.277785 0.0 
			0.353553 0.353553 0.0 
			0.277785 0.415735 0.0 
			0.191342 0.46194 0.0 
			0.0975451 0.490393 0.0 
			-2.18557e-08 0.5 0.0 
			-0.0975452 0.490393 0.0 
			-0.191342 0.46194 0.0 
			-0.277785 0.415735 0.0 
			-0.353553 0.353553 0.0 
			-0.415735 0.277785 0.0 
			-0.46194 0.191342 0.0 
			-0.490393 0.0975451 0.0 
			-0.5 -4.37114e-08 0.0 
			-0.490393 -0.0975452 0.0 
			-0.46194 -0.191342 0.0 
			-0.415735 -0.277785 0.0 
			-0.353553 -0.353553 0.0 
			-0.277785 -0.415735 0.0 
			-0.191342 -0.46194 0.0 
			-0.0975451 -0.490393 0.0 
			6.55671e-08 -0.5 0.0 
			0.0975452 -0.490393 0.0 
			0.191342 -0.46194 0.0 
			0.277785 -0.415735 0.0 
			0.353553 -0.353553 0.0 
			0.415735 -0.277785 0.0 
			0.46194 -0.191342 0.0 
			0.490393 -0.0975451 0.0 
			0.640494 0.0630831 0.0 
			0.61588 0.186825 0.0 
			0.567598 0.303387 0.0 
			0.497504 0.408291 0.0 
			0.408291 0.497504 0.0 
			0.303387 0.567598 0.0 
			0.186825 0.61588 0.0 
			0.0630831 0.640494 0.0 
			-0.0630831 0.640494 0.0 
			-0.186825 0.61588 0.0 
			-0.303387 0.567598 0.0 
			-0.408291 0.497504 0.0 
			-0.497504 0.408291 0.0 
			-0.567598 0.303387 0.0 
			-0.61588 0.186825 0.0 
			-0.640494 0.0630831 0.0 
			-0.640494 -0.0630832 0.0 
			-0.61588 -0.186825 0.0 
			-0.567598 -0.303388 0.0 
			-0.497504 -0.408291 0.0 
			-0.408291 -0.497504 0.0 
			-0.303387 -0.567598 0.0 
			-0.186825 -0.61588 0.0 
			-0.063083 -0.640494 0.0 
			0.0630832 -0.640494 0.0 
			0.186825 -0.61588 0.0 
			0.303388 -0.567598 0.0 
			0.408291 -0.497504 0.0 
			0.497504 -0.408291 0.0 
			0.567598 -0.303387 0.0 
			0.61588 -0.186825 0.0 
			0.640494 -0.063083 0.0 
			0.901832 0 0.0 
			0.884503 0.175939 0.0 
			0.833184 0.345116 0.0 
			0.749846 0.501031 0.0 
			0.637691 0.637691 0.0 
			0.501031 0.749846 0.0 
			0.345116 0.833184 0.0 
			0.175939 0.884503 0.0 
			-3.94203e-08 0.901832 0.0 
			-0.175939 0.884503 0.0 
			-0.345116 0.833184 0.0 
			-0.501031 0.749846 0.0 
			-0.637691 0.637691 0.0 
			-0.749846 0.501031 0.0 
			-0.833184 0.345116 0.0 
			-0.884503 0.175939 0.0 
			-0.901832 -7.88406e-08 0.0 
			-0.884503 -0.175939 0.0 
			-0.833184 -0.345116 0.0 
			-0.749846 -0.501031 0.0 
			-0.637691 -0.637691 0.0 
			-0.501031 -0.749846 0.0 
			-0.345116 -0.833184 0.0 
			-0.175939 -0.884503 0.0 
			1.18261e-07 -0.901832 0.0 
			0.175939 -0.884503 0.0 
			0.345116 -0.833184 0.0 
			0.501031 -0.749846 0.0 
			0.637691 -0.637691 0.0 
			0.749846 -0.501031 0.0 
			0.833184 -0.345116 0.0 
			0.884503 -0.175938 0.0 
			1.35967 0.133916 0.0 
			1.30742 0.396602 0.0 
			1.20493 0.644047 0.0 
			1.05613 0.866742 0.0 
			0.866742 1.05613 0.0 
			0.644047 1.20493 0.0 
			0.396602 1.30742 0.0 
			0.133916 1.35967 0.0 
			-0.133916 1.35967 0.0 
			-0.396602 1.30742 0.0 
			-0.644047 1.20493 0.0 
			-0.866742 1.05613 0.0 
			-1.05613 0.866742 0.0 
			-1.20493 0.644047 0.0 
			-1.30742 0.396602 0.0 
			-1.35967 0.133916 0.0 
			-1.35967 -0.133916 0.0 
			-1.30742 -0.396602 0.0 
			-1.20493 -0.644047 0.0 
			-1.05613 -0.866742 0.0 
			-0.866742 -1.05613 0.0 
			-0.644047 -1.20493 0.0 
			-0.396602 -1.30742 0.0 
			-0.133916 -1.35967 0.0 
			0.133916 -1.35967 0.0 
			0.396602 -1.30742 0.0 
			0.644047 -1.20493 0.0 
			0.866742 -1.05613 0.0 
			1.05613 -0.866742 0.0 
			1.20493 -0.644047 0.0 
			1.30742 -0.396602 0.0 
			1.35967 -0.133916 0.0 
			2.20148 0 0.0 
			2.15917 0.429487 0.0 
			2.0339 0.842468 0.0 
			1.83046 1.22307 0.0 
			1.55668 1.55668 0.0 
			1.22307 1.83046 0.0 
			0.842468 2.0339 0.0 
			0.429486 2.15917 0.0 
			-9.62295e-08 2.20148 0.0 
			-0.429487 2.15917 0.0 
			-0.842468 2.0339 0.0 
			-1.22307 1.83046 0.0 
			-1.55668 1.55668 0.0 
			-1.83046 1.22307 0.0 
			-2.0339 0.842468 0.0 
			-2.15917 0.429486 0.0 
			-2.20148 -1.92459e-07 0.0 
			-2.15917 -0.429487 0.0 
			-2.0339 -0.842468 0.0 
			-1.83046 -1.22307 0.0 
			-1.55668 -1.55668 0.0 
			-1.22307 -1.83046 0.0 
			-0.842468 -2.0339 0.0 
			-0.429486 -2.15917 0.0 
			2.88689e-07 -2.20148 0.0 
			0.429487 -2.15917 0.0 
			0.842468 -2.0339 0.0 
			1.22307 -1.83046 0.0 
			1.55668 -1.55668 0.0 
			1.83046 -1.22307 0.0 
			2.0339 -0.842468 0.0 
			2.15917 -0.429486 0.0 
			3.68572 0.363012 0.0 
			3.54408 1.07508 0.0 
			3.26624 1.74584 0.0 
			2.86288 2.34951 0.0 
			2.34951 2.86288 0.0 
			1.74584 3.26624 0.0 
			1.07508 3.54408 0.0 
			0.363011 3.68572 0.0 
			-0.363012 3.68572 0.0 
			-1.07508 3.54408 0.0 
			-1.74584 3.26624 0.0 
			-2.34951 2.86288 0.0 
			-2.86288 2.34951 0.0 
			-3.26624 1.74584 0.0 
			-3.54408 1.07508 0.0 
			-3.68572 0.363011 0.0 
			-3.68572 -0.363012 0.0 
			-3.54408 -1.07508 0.0 
			-3.26624 -1.74584 0.0 
			-2.86288 -2.34951 0.0 
			-2.34951 -2.86288 0.0 
			-1.74584 -3.26624 0.0 
			-1.07508 -3.54408 0.0 
			-0.363011 -3.68572 0.0 
			0.363012 -3.68572 0.0 
			1.07508 -3.54408 0.0 
			1.74584 -3.26624 0.0 
			2.34951 -2.86288 0.0 
			2.86288 -2.34951 0.0 
			3.26624 -1.74584 0.0 
			3.54408 -1.07508 0.0 
			3.68572 -0.363011 0.0 
			6.40491 0 0.0 
			6.28184 1.24954 0.0 
			5.91737 2.45105 0.0 
			5.32549 3.55838 0.0 
			4.52896 4.52896 0.0 
			3.55838 5.32549 0.0 
			2.45105 5.91737 0.0 
			1.24954 6.28184 0.0 
			-2.79968e-07 6.40491 0.0 
			-1.24954 6.28184 0.0 
			-2.45105 5.91737 0.0 
			-3.55838 5.32549 0.0 
			-4.52896 4.52896 0.0 
			-5.32549 3.55838 0.0 
			-5.91737 2.45105 0.0 
			-6.28184 1.24954 0.0 
			-6.40491 -5.59935e-07 0.0 
			-6.28184 -1.24954 0.0 
			-5.91737 -2.45105 0.0 
			-5.32549 -3.55838 0.0 
			-4.52896 -4.52896 0.0 
			-3.55838 -5.32549 0.0 
			-2.45105 -5.91737 0.0 
			-1.24954 -6.28184 0.0 
			8.39903e-07 -6.40491 0.0 
			1.24954 -6.28184 0.0 
			2.45105 -5.91737 0.0 
			3.55838 -5.32549 0.0 
			4.52896 -4.52895 0.0 
			5.32549 -3.55838 0.0 
			5.91737 -2.45105 0.0 
			6.28184 -1.24953 0.0 
			11.2088 1.10397 0.0 
			10.7781 3.2695 0.0 
			9.93314 5.30938 0.0 
			8.70647 7.14522 0.0 
			7.14522 8.70647 0.0 
			5.30938 9.93314 0.0 
			3.2695 10.7781 0.0 
			1.10397 11.2088 0.0 
			-1.10397 11.2088 0.0 
			-3.2695 10.7781 0.0 
			-5.30938 9.93314 0.0 
			-7.14522 8.70647 0.0 
			-8.70647 7.14522 0.0 
			-9.93315 5.30938 0.0 
			-10.7781 3.2695 0.0 
			-11.2088 1.10397 0.0 
			-11.2088 -1.10398 0.0 
			-10.7781 -3.2695 0.0 
			-9.93314 -5.30938 0.0 
			-8.70647 -7.14522 0.0 
			-7.14522 -8.70648 0.0 
			-5.30938 -9.93315 0.0 
			-3.2695 -10.7781 0.0 
			-1.10397 -11.2088 0.0 
			1.10398 -11.2088 0.0 
			3.2695 -10.7781 0.0 
			5.30938 -9.93314 0.0 
			7.14522 -8.70647 0.0 
			8.70648 -7.14522 0.0 
			9.93315 -5.30937 0.0 
			10.7781 -3.2695 0.0 
			11.2088 -1.10397 0.0 
			20.0001 0 0.0 
			19.6158 3.90182 0.0 
			18.4777 7.6537 0.0 
			16.6295 11.1114 0.0 
			14.1422 14.1422 0.0 
			11.1114 16.6295 0.0 
			7.6537 18.4777 0.0 
			3.90182 19.6158 0.0 
			-8.74231e-07 20.0001 0.0 
			-3.90182 19.6158 0.0 
			-7.6537 18.4777 0.0 
			-11.1114 16.6295 0.0 
			-14.1422 14.1422 0.0 
			-16.6295 11.1114 0.0 
			-18.4777 7.65369 0.0 
			-19.6158 3.90182 0.0 
			-20.0001 -1.74846e-06 0.0 
			-19.6158 -3.90182 0.0 
			-18.4777 -7.6537 0.0 
			-16.6295 -11.1114 0.0 
			-14.1422 -14.1422 0.0 
			-11.1114 -16.6295 0.0 
			-7.65369 -18.4777 0.0 
			-3.90182 -19.6158 0.0 
			2.62269e-06 -20.0001 0.0 
			3.90182 -19.6158 0.0 
			7.6537 -18.4777 0.0 
			11.1114 -16.6295 0.0 
			14.1422 -14.1422 0.0 
			16.6295 -11.1114 0.0 
			18.4777 -7.65369 0.0 
			19.6158 -3.90182 0.0 
		</DataArray>
		</Points>
		<Cells>
			<DataArray type="UInt32" Name="connectivity" Format="ascii">
				0 32 1 
				0 63 32 
				1 33 2 
				1 32 33 
				2 34 3 
				2 33 34 
				3 35 4 
				3 34 35 
				4 36 5 
				4 35 36 
				5 37 6 
				5 36 37 
				6 38 7 
				6 37 38 
				7 39 8 
				7 38 39 
				8 40 9 
				8 39 40 
				9 41 10 
				9 40 41 
				10 42 11 
				10 41 42 
				11 43 12 
				11 42 43 
				12 44 13 
				12 43 44 
				13 45 14 
				13 44 45 
				14 46 15 
				14 45 46 
				15 47 16 
				15 46 47 
				16 48 17 
				16 47 48 
				17 49 18 
				17 48 49 
				18 50 19 
				18 49 50 
				19 51 20 
				19 50 51 
				20 52 21 
				20 51 52 
				21 53 22 
				21 52 53 
				22 54 23 
				22 53 54 
				23 55 24 
				23 54 55 
				24 56 25 
				24 55 56 
				25 57 26 
				25 56 57 
				26 58 27 
				26 57 58 
				27 59 28 
				27 58 59 
				28 60 29 
				28 59 60 
				29 61 30 
				29 60 61 
				30 62 31 
				30 61 62 
				31 63 0 
				31 62 63 
				32 64 65 
				32 63 64 
				33 65 66 
				33 32 65 
				34 66 67 
				34 33 66 
				35 67 68 
				35 34 67 
				36 68 69 
				36 35 68 
				37 69 70 
				37 36 69 
				38 70 71 
				38 37 70 
				39 71 72 
				39 38 71 
				40 72 73 
				40 39 72 
				41 73 74 
				41 40 73 
				42 74 75 
				42 41 74 
				43 75 76 
				43 42 75 
				44 76 77 
				44 43 76 
				45 77 78 
				45 44 77 
				46 78 79 
				46 45 78 
				47 79 80 
				47 46 79 
				48 80 81 
				48 47 80 
				49 81 82 
				49 48 81 
				50 82 83 
				50 49 82 
				51 83 84 
				51 50 83 
				52 84 85 
				52 51 84 
				53 85 86 
				53 52 85 
				54 86 87 
				54 53 86 
				55 87 88 
				55 54 87 
				56 88 89 
				56 55 88 
				57 89 90 
				57 56 89 
				58 90 91 
				58 57 90 
				59 91 92 
				59 58 91 
				60 92 93 
				60 59 92 
				61 93 94 
				61 60 93 
				62 94 95 
				62 61 94 
				63 95 64 
				63 62 95 
				64 96 65 
				64 127 96 
				65 97 66 
				65 96 97 
				66 98 67 
				66 97 98 
				67 99 68 
				67 98 99 
				68 100 69 
				68 99 100 
				69 101 70 
				69 100 101 
				70 102 71 
				70 101 102 
				71 103 72 
				71 102 103 
				72 104 73 
				72 103 104 
				73 105 74 
				73 104 105 
				74 106 75 
				74 105 106 
				75 107 76 
				75 106 107 
				76 108 77 
				76 107 108 
				77 109 78 
				77 108 109 
				78 110 79 
				78 109 110 
				79 111 80 
				79 110 111 
				80 112 81 
				80 111 112 
				81 113 82 
				81 112 113 
				82 114 83 
				82 113 114 
				83 115 84 
				83 114 115 
				84 116 85 
				84 115 116 
				85 117 86 
				85 116 117 
				86 118 87 
				86 117 118 
				87 119 88 
				87 118 119 
				88 120 89 
				88 119 120 
				89 121 90 
				89 120 121 
				90 122 91 
				90 121 122 
				91 123 92 
				91 122 123 
				92 124 93 
				92 123 124 
				93 125 94 
				93 124 125 
				94 126 95 
				94 125 126 
				95 127 64 
				95 126 127 
				96 128 129 
				96 127 128 
				97 129 130 
				97 96 129 
				98 130 131 
				98 97 130 
				99 131 132 
				99 98 131 
				100 132 133 
				100 99 132 
				101 133 134 
				101 100 133 