<VTKFile type="UnstructuredGrid" version="0.1" byte_order="LittleEndian">
<UnstructuredGrid>
	<Piece NumberOfPoints="80" NumberOfCells="128">
		<CellData Scalars="density" Vectors="velocity">
			<DataArray type="Float64" Name="density" Format="ascii">
				-nan
				9.53976
				-nan
				-nan
				-nan
				-nan
				0.992654
				1.00946
				1.00897
				1.00007
				1.02572
				1.00153
				1.0397
				1.00191
				1.04875
				1.00141
				1.04873
				1.00157
				1.03965
				1.0014
				1.02568
				1.0019
				1.00895
				1.00153
				0.991439
				1.00006
				0.97566
				0.99799
				0.955947
				0.995799
				0.973233
				0.967799
				-nan
				1.28416
				-nan
				-nan
				-nan
				-nan
				1.00001
				1.00023
				1
				0.999984
				1
				1.00002
				1.00001
				1.00006
				1.00001
				1.00008
				1.00001
				1.00009
				1.00001
				1.00008
				1
				1.00006
				1
				1.00002
				0.999997
				0.999983
				0.999993
				0.99994
				0.999981
				0.99988
				1.00767
				0.998988
				0.999879
				0.999997
				0.999942
				0.999991
				1
				0.999997
				1
				1
				1
				1
				1
				1
				1
				1
				1
				1
				1
				1
				1
				1
				1
				1
				1
				1
				1
				1
				1
				1
				1
				1
				0.99998
				1
				1
				1
				1
				1
				1
				1
				1
				1
				1
				1
				1
				1
				1
				1
				1
				1
				1
				1
				1
				1
				1
				1
				1
				1
				1
				1
				1
				1
				1
				1
				1
				1
			</DataArray>
			<DataArray type="Float64" Name="mach-number" Format="ascii">
				-nan
				3.01092
				-nan
				-nan
				-nan
				-nan
				0.380044
				0.380793
				0.378831
				0.380667
				0.37153
				0.380422
				0.362592
				0.378786
				0.357287
				0.376749
				0.357296
				0.376525
				0.362611
				0.376753
				0.371542
				0.378791
				0.378833
				0.380417
				0.380201
				0.380664
				0.375796
				0.380226
				0.375571
				0.38009
				1.40683
				0.394575
				-nan
				0.439513
				-nan
				-nan
				-nan
				-nan
				0.38
				0.380016
				0.380001
				0.380013
				0.379998
				0.379998
				0.379994
				0.379951
				0.379991
				0.379906
				0.379991
				0.379894
				0.379994
				0.379906
				0.379998
				0.379951
				0.380001
				0.379998
				0.380002
				0.380013
				0.379998
				0.379993
				0.379947
				0.379946
				0.380821
				0.378711
				0.380065
				0.380002
				0.380019
				0.380002
				0.38
				0.380001
				0.38
				0.38
				0.38
				0.38
				0.38
				0.38
				0.38
				0.38
				0.38
				0.38
				0.38
				0.38
				0.38
				0.38
				0.38
				0.38
				0.38
				0.38
				0.38
				0.38
				0.38
				0.38
				0.38
				0.38
				0.380024
				0.379999
				0.38
				0.38
				0.38
				0.38
				0.38
				0.38
				0.38
				0.38
				0.38
				0.38
				0.38
				0.38
				0.38
				0.38
				0.38
				0.38
				0.38
				0.38
				0.38
				0.38
				0.38
				0.38
				0.38
				0.38
				0.38
				0.38
				0.38
				0.38
				0.38
				0.38
				0.38
				0.38
			</DataArray>
			<DataArray type="Float64" Name="pressure" Format="ascii">
				-nan
				1.35321
				-nan
				-nan
				-nan
				-nan
				4.89041
				4.94514
				5.00946
				4.94695
				5.13141
				4.95662
				5.23535
				4.96027
				5.30142
				4.95886
				5.30128
				4.96022
				5.23503
				4.95882
				5.13112
				4.96021
				5.00933
				4.95661
				4.88818
				4.94694
				4.78468
				4.93299
				4.63959
				4.91627
				0.54931
				4.51294
				-nan
				4.82196
				-nan
				-nan
				-nan
				-nan
				4.94658
				4.9466
				4.94658
				4.94646
				4.9466
				4.94671
				4.94662
				4.94698
				4.94663
				4.94719
				4.94663
				4.94725
				4.94662
				4.94719
				4.9466
				4.94698
				4.94658
				4.94671
				4.94656
				4.94646
				4.94653
				4.94617
				4.94637
				4.94571
				4.97974
				4.93685
				4.94714
				4.94661
				4.94644
				4.94655
				4.94658
				4.94656
				4.94658
				4.94658
				4.94658
				4.94658
				4.94658
				4.94658
				4.94658
				4.94658
				4.94658
				4.94658
				4.94658
				4.94658
				4.94658
				4.94658
				4.94658
				4.94658
				4.94658
				4.94658
				4.94658
				4.94658
				4.94658
				4.94658
				4.94659
				4.94658
				4.94713
				4.94662
				4.94658
				4.94658
				4.94658
				4.94658
				4.94658
				4.94658
				4.94658
				4.94658
				4.94658
				4.94658
				4.94658
				4.94658
				4.94658
				4.94658
				4.94658
				4.94658
				4.94658
				4.94658
				4.94658
				4.94658
				4.94658
				4.94658
				4.94658
				4.94658
				4.94658
				4.94658
				4.94658
				4.94658
				4.94658
				4.94658
				4.94658
				4.94658
			</DataArray>
			<DataArray type="Float64" Name="velocity" NumberOfComponents="3" Format="ascii">
				-nan -nan 0.0 
				0.996284 0.898754 0.0 
				-nan -nan 0.0 
				-nan -nan 0.0 
				-nan -nan 0.0 
				-nan -nan 0.0 
				0.998023 -0.012035 0.0 
				0.997234 0.00161428 0.0 
				0.998705 0.0114916 0.0 
				1.00176 -0.00255783 0.0 
				0.982828 0.0286707 0.0 
				1.00136 -0.000584143 0.0 
				0.962317 0.0279701 0.0 
				0.997229 0.00189684 0.0 
				0.950407 0.0116632 0.0 
				0.991975 0.00170446 0.0 
				0.950427 -0.0116611 0.0 
				0.991445 -3.06544e-06 0.0 
				0.962359 -0.0279414 0.0 
				0.991985 -0.00170404 0.0 
				0.982851 -0.0286201 0.0 
				0.997241 -0.00188618 0.0 
				0.998706 -0.0114678 0.0 
				1.00135 0.000595821 0.0 
				0.998812 0.0124794 0.0 
				1.00175 0.00256358 0.0 
				0.98427 0.0282903 0.0 
				1.00022 0.00211019 0.0 
				0.977453 0.0548687 0.0 
				0.999268 0.000995383 0.0 
				1.0374 0.698359 0.0 
				0.995 0.162376 0.0 
				-nan -nan 0.0 
				0.958662 0.310579 0.0 
				-nan -nan 0.0 
				-nan -nan 0.0 
				-nan -nan 0.0 
				-nan -nan 0.0 
				0.999997 -5.94276e-07 0.0 
				0.999932 3.53459e-05 0.0 
				1 2.02638e-06 0.0 
				1.00003 -4.41646e-05 0.0 
				0.999996 1.00986e-05 0.0 
				0.999999 5.25633e-05 0.0 
				0.999985 1.01652e-05 0.0 
				0.999883 0.00010128 0.0 
				0.999979 3.78417e-06 0.0 
				0.999773 6.43809e-05 0.0 
				0.999979 -3.79647e-06 0.0 
				0.999744 -5.79847e-08 0.0 
				0.999985 -1.01443e-05 0.0 
				0.999773 -6.42808e-05 0.0 
				0.999996 -1.00575e-05 0.0 
				0.999883 -0.000100792 0.0 
				1 -2.00969e-06 0.0 
				0.999998 -5.25567e-05 0.0 
				1 9.6298e-06 0.0 
				1.00003 4.46073e-05 0.0 
				0.999993 1.82528e-05 0.0 
				0.999971 0.000136526 0.0 
				0.999849 8.902e-05 0.0 
				0.999831 0.000170396 0.0 
				1.00153 -0.0174334 0.0 
				0.996128 0.00298116 0.0 
				1.00029 -0.000423019 0.0 
				1.00001 -1.78365e-05 0.0 
				1.00007 -0.000173504 0.0 
				1.00001 -1.45329e-05 0.0 
				1 1.72045e-06 0.0 
				1 -5.17891e-06 0.0 
				1 1.50921e-08 0.0 
				1 7.06884e-08 0.0 
				1 -1.27446e-08 0.0 
				1 6.68077e-11 0.0 
				1 9.46028e-09 0.0 
				1 3.83802e-10 0.0 
				1 8.83855e-09 0.0 
				1 5.54328e-10 0.0 
				1 3.46385e-09 0.0 
				1 3.48961e-10 0.0 
				1 -3.4934e-09 0.0 
				1 -1.42186e-12 0.0 
				1 -8.85194e-09 0.0 
				1 -3.45181e-10 0.0 
				1 -7.82821e-09 0.0 
				1 -5.82401e-10 0.0 
				1 8.2809e-10 0.0 
				1 -3.75572e-10 0.0 
				1 3.32635e-08 0.0 
				1 5.64718e-10 0.0 
				1 1.31484e-08 0.0 
				1 -2.42616e-10 0.0 
				1 -2.74777e-06 0.0 
				1 -1.95693e-07 0.0 
				1.00013 -0.000316641 0.0 
				1 -1.6072e-05 0.0 
				1 -5.43086e-10 0.0 
				1 -9.30113e-08 0.0 
				1 -9.11196e-10 0.0 
				1 -7.07497e-08 0.0 
				1 -1.98464e-10 0.0 
				1 -2.09423e-08 0.0 
				1 7.27533e-12 0.0 
				1 8.46216e-10 0.0 
				1 1.85793e-13 0.0 
				1 3.38317e-11 0.0 
				1 -2.7263e-13 0.0 
				1 5.10006e-12 0.0 
				1 -1.95306e-13 0.0 
				1 -5.60247e-12 0.0 
				1 -7.01986e-14 0.0 
				1 -3.84979e-12 0.0 
				1 7.16747e-14 0.0 
				1 -4.29256e-15 0.0 
				1 2.03331e-13 0.0 
				1 3.83044e-12 0.0 
				1 2.47081e-13 0.0 
				1 5.05988e-12 0.0 
				1 -3.65243e-14 0.0 
				1 1.19989e-13 0.0 
				1 -1.32769e-12 0.0 
				1 -2.054e-11 0.0 
				1 -2.93014e-11 0.0 
				1 -8.94186e-11 0.0 
				1 -1.73087e-09 0.0 
				1 -2.05663e-09 0.0 
				1 -1.97494e-09 0.0 
				1 -1.01481e-07 0.0 
			</DataArray>
		</CellData>
		<Points>
		<DataArray type="Float64" NumberOfComponents="3" Format="ascii">
			0.5 0 0.0 
			0.46194 0.191342 0.0 
			0.353553 0.353553 0.0 
			0.191342 0.46194 0.0 
			-2.18557e-08 0.5 0.0 
			-0.191342 0.46194 0.0 
			-0.353553 0.353553 0.0 
			-0.46194 0.191342 0.0 
			-0.5 -4.37114e-08 0.0 
			-0.46194 -0.191342 0.0 
			-0.353553 -0.353553 0.0 
			-0.191342 -0.46194 0.0 
			6.55671e-08 -0.5 0.0 
			0.191342 -0.46194 0.0 
			0.353553 -0.353553 0.0 
			0.46194 -0.191342 0.0 
			0.884503 0.175939 0.0 
			0.749846 0.501031 0.0 
			0.501031 0.749846 0.0 
			0.175939 0.884503 0.0 
			-0.175939 0.884503 0.0 
			-0.501031 0.749846 0.0 
			-0.749846 0.501031 0.0 
			-0.884503 0.175939 0.0 
			-0.884503 -0.175939 0.0 
			-0.749846 -0.501031 0.0 
			-0.501031 -0.749846 0.0 
			-0.175939 -0.884503 0.0 
			0.175939 -0.884503 0.0 
			0.501031 -0.749846 0.0 
			0.749846 -0.501031 0.0 
			0.884503 -0.175938 0.0 
			2.20148 0 0.0 
			2.0339 0.842468 0.0 
			1.55668 1.55668 0.0 
			0.842468 2.0339 0.0 
			-9.62295e-08 2.20148 0.0 
			-0.842468 2.0339 0.0 
			-1.55668 1.55668 0.0 
			-2.0339 0.842468 0.0 
			-2.20148 -1.92459e-07 0.0 
			-2.0339 -0.842468 0.0 
			-1.55668 -1.55668 0.0 
			-0.842468 -2.0339 0.0 
			2.88689e-07 -2.20148 0.0 
			0.842468 -2.0339 0.0 
			1.55668 -1.55668 0.0 
			2.0339 -0.842468 0.0 
			6.28184 1.24954 0.0 
			5.32549 3.55838 0.0 
			3.55838 5.32549 0.0 
			1.24954 6.28184 0.0 
			-1.24954 6.28184 0.0 
			-3.55838 5.32549 0.0 
			-5.32549 3.55838 0.0 
			-6.28184 1.24954 0.0 
			-6.28184 -1.24954 0.0 
			-5.32549 -3.55838 0.0 
			-3.55838 -5.32549 0.0 
			-1.24954 -6.28184 0.0 
			1.24954 -6.28184 0.0 
			3.55838 -5.32549 0.0 
			5.32549 -3.55838 0.0 
			6.28184 -1.24953 0.0 
			20.0001 0 0.0 
			18.4777 7.6537 0.0 
			14.1422 14.1422 0.0 
			7.6537 18.4777 0.0 
			-8.74231e-07 20.0001 0.0 
			-7.6537 18.4777 0.0 
			-14.1422 14.1422 0.0 
			-18.4777 7.65369 0.0 
			-20.0001 -1.74846e-06 0.0 
			-18.4777 -7.6537 0.0 
			-14.1422 -14.1422 0.0 
			-7.65369 -18.4777 0.0 
			2.62269e-06 -20.0001 0.0 
			7.6537 -18.4777 0.0 
			14.1422 -14.1422 0.0 
			18.4777 -7.65369 0.0 
		</DataArray>
		</Points>
		<Cells>
			<DataArray type="UInt32" Name="connectivity" Format="ascii">
				0 16 1 
				0 31 16 
				1 17 2 
				1 16 17 
				2 18 3 
				2 17 18 
				3 19 4 
				3 18 19 
				4 20 5 
				4 19 20 
				5 21 6 
				5 20 21 
				6 22 7 
				6 21 22 
				7 23 8 
				7 22 23 
				8 24 9 
				8 23 24 
				9 25 10 
				9 24 25 
				10 26 11 
				10 25 26 
				11 27 12 
				11 26 27 
				12 28 13 
				12 27 28 
				13 29 14 
				13 28 29 
				14 30 15 
				14 29 30 
				15 31 0 
				15 30 31 
				16 32 33 
				16 31 32 
				17 33 34 
				17 16 33 
				18 34 35 
				18 17 34 
				19 35 36 
				19 18 35 
				20 36 37 
				20 19 36 
				21 37 38 
				21 20 37 
				22 38 39 
				22 21 38 
				23 39 40 
				23 22 39 
				24 40 41 
				24 23 40 
				25 41 42 
				25 24 41 
				26 42 43 
				26 25 42 
				27 43 44 
				27 26 43 
				28 44 45 
				28 27 44 
				29 45 46 
				29 28 45 
				30 46 47 
				30 29 46 
				31 47 32 
				31 30 47 
				32 48 33 
				32 63 48 
				33 49 34 
				33 48 49 
				34 50 35 
				34 49 50 
				35 51 36 
				35 50 51 
				36 52 37 
				36 51 52 
				37 53 38 
				37 52 53 
				38 54 39 
				38 53 54 
				39 55 40 
				39 54 55 
				40 56 41 
				40 55 56 
				41 57 42 
				41 56 57 
				42 58 43 
				42 57 58 
				43 59 44 
				43 58 59 
				44 60 45 
				44 59 60 
				45 61 46 
				45 60 61 
				46 62 47 
				46 61 62 
				47 63 32 
				47 62 63 
				48 64 65 
				48 63 64 
				49 65 66 
				49 48 65 
				50 66 67 
				50 49 66 
				51 67 68 
				51 50 67 
				52 68 69 
				52 51 68 
				53 69 70 
				53 52 69 
				54 70 71 
				54 53 70 
				55 71 72 
				55 54 71 
				56 72 73 
				56 55 72 
				57 73 74 
				57 56 73 
				58 74 75 
				58 57 74 
				59 75 76 
				59 58 75 
				60 76 77 
				60 59 76 
				61 77 78 
				61 60 77 
				62 78 79 
				62 61 78 
				63 79 64 
				63 62 79 
			</DataArray>
			<DataArray type="UInt32" Name="offsets" Format="ascii">
				3
				6
				9
				12
				15
				18
				21
				24
				27
				30
				33
				36
				39
				42
				45
				48
				51
				54
				57
				60
				63
				66
				69
				72
				75
				78
				81
				84
				87
				90
				93
				96
				99
				102
				105
				108
				111
				114
				117
				120
				123
				126
				129
				132
				135
				138
				141
				144
				147
				150
				153
				156
				159
				162
				165
				168
				171
				174
				177
				180
				183
				186
				189
				192
				195
				198
				201
				204
				207
				210
				213
				216
				219
				222
				225
				228
				231
				234
				237
				240
				243
				246
				249
				252
				255
				258
				261
				264
				267
				270
				273
				276
				279
				282
				285
				288
				291
				294
				297
				300
				303
				306
				309
				312
				315
				318
				321
				324
				327
				330
				333
				336
				339
				342
				345
				348
				351
				354
				357
				360
				363
				366
				369
				372
				375
				378
				381
				384
			</DataArray>
			<DataArray type="Int32" Name="types" Format="ascii">
				5
				5
				5
				5
				5
				5
				5
				5
				5
				5
				5
				5
				5
				5
				5
				5
				5
				5
				5
				5
				5
				5
				5
				5
				5
				5
				5
				5
				5
				5
				5
				5
				5
				5
				5
				5
				5
				5
				5
				5
				5
				5
				5
				5
				5
				5
				5
				5
				5
				5
				5
				5
				5
				5
				5
				5
				5
				5
				5
				5
				5
				5
				5
				5
				5
				5
				5
				5
				5
				5
				5
				5
				5
				5
				5
				5
				5
				5
				5
				5
				5
				5
				5
				5
				5
				5
				5
				5
				5
				5
				5
				5
				5
				5
				5
				5
				5
				5
				5
				5
				5
				5
				5
				5
				5
				5
				5
				5
				5
				5
				5
				5
				5
				5
				5
				5
				5
				5
				5
				5
				5
				5
				5
				5
				5
				5
				5
				5
			</DataArray>
		</Cells>
	</Piece>
</UnstructuredGrid>
</VTKFile>