<VTKFile type="UnstructuredGrid" version="0.1" byte_order="LittleEndian">
<UnstructuredGrid>
	<Piece NumberOfPoints="80" NumberOfCells="128">
		<CellData Scalars="density" Vectors="velocity">
			<DataArray type="Float64" Name="density" Format="ascii">
				-nan
				-nan
				0.816875
				0.927868
				0.713779
				0.766242
				0.764171
				0.811748
				0.782159
				0.858403
				0.868004
				0.888502
				0.966922
				0.942728
				1.02908
				0.989686
				1.03751
				1.01155
				0.994994
				1.00459
				0.917582
				0.970656
				0.850288
				0.932379
				0.857827
				0.918899
				0.917859
				0.950917
				nan
				0.996057
				-nan
				nan
				-nan
				-nan
				0.872975
				0.956518
				0.841793
				0.80492
				0.894312
				0.85016
				0.946518
				0.913167
				0.969292
				0.949356
				0.981339
				0.969776
				0.990517
				0.984604
				0.994504
				0.988068
				0.992318
				0.993071
				0.98888
				0.986373
				0.996034
				0.979717
				1.01888
				0.994152
				1.03268
				1.02116
				-nan
				1.06452
				-nan
				-nan
				0.834885
				0.810466
				0.960438
				1.04759
				0.8962
				0.917664
				0.92175
				0.921461
				0.961509
				0.955698
				0.982801
				0.981373
				0.994252
				0.992636
				1.00263
				1.00002
				1.00795
				1.00549
				1.01046
				1.00987
				1.0138
				1.01328
				1.02338
				1.01979
				1.02948
				1.03104
				1.036
				1.02515
				0.969425
				1.04289
				1.27187
				1.08162
				0.931952
				0.897489
				0.966849
				1.00885
				0.957254
				0.937815
				0.975916
				0.964995
				0.98573
				0.979421
				0.991645
				0.98862
				0.996169
				0.994341
				1.00025
				0.999457
				1.00355
				1.0036
				1.00645
				1.00745
				1.0094
				1.01086
				1.0129
				1.01425
				1.01465
				1.01812
				1.01589
				1.01514
				1.03727
				1.0304
				1.00452
				1.02988
			</DataArray>
			<DataArray type="Float64" Name="mach-number" Format="ascii">
				-nan
				-nan
				0.311834
				0.222623
				0.658893
				0.585574
				0.710092
				0.633522
				0.712491
				0.616741
				0.568561
				0.567854
				0.369737
				0.446268
				0.172191
				0.308591
				0.126311
				0.240412
				0.309946
				0.264985
				0.495318
				0.387348
				0.627522
				0.504949
				0.616465
				0.559031
				0.48681
				0.502031
				nan
				0.412315
				-nan
				nan
				-nan
				-nan
				0.480978
				0.426886
				0.579859
				0.611847
				0.528897
				0.590367
				0.464691
				0.518602
				0.420747
				0.460415
				0.382132
				0.403494
				0.353516
				0.351977
				0.342147
				0.335883
				0.351151
				0.328075
				0.375359
				0.361821
				0.391315
				0.407852
				0.379017
				0.421121
				0.364394
				0.393699
				-nan
				0.385334
				-nan
				-nan
				0.349115
				0.587776
				0.418785
				0.357818
				0.513258
				0.470385
				0.492071
				0.487514
				0.441953
				0.450677
				0.407651
				0.414926
				0.381455
				0.393233
				0.360505
				0.376732
				0.35024
				0.366558
				0.350622
				0.357854
				0.354963
				0.356428
				0.352078
				0.354214
				0.342298
				0.344806
				0.340734
				0.344734
				0.372906
				0.355499
				0.498858
				0.412196
				0.368761
				0.452923
				0.402152
				0.397067
				0.423814
				0.453869
				0.414617
				0.432799
				0.403632
				0.416761
				0.394669
				0.402044
				0.386674
				0.391367
				0.37988
				0.382922
				0.374772
				0.377685
				0.371051
				0.372205
				0.368094
				0.368178
				0.3652
				0.363979
				0.365382
				0.359329
				0.368062
				0.360514
				0.391853
				0.363608
				0.494759
				0.435556
			</DataArray>
			<DataArray type="Float64" Name="pressure" Format="ascii">
				-nan
				-nan
				3.95498
				4.82838
				3.1405
				3.45591
				3.42688
				3.72147
				3.54192
				4.01827
				4.06795
				4.2258
				4.70441
				4.58133
				5.13931
				4.8855
				5.20188
				5.01872
				4.9042
				4.98542
				4.40111
				4.77229
				3.97036
				4.51589
				4.03713
				4.42154
				4.45201
				4.63346
				nan
				4.97682
				-nan
				nan
				-nan
				-nan
				4.15818
				4.71633
				3.88792
				3.64514
				4.23047
				3.93318
				4.57752
				4.35346
				4.73395
				4.59858
				4.81904
				4.73607
				4.88285
				4.8403
				4.90868
				4.88641
				4.8931
				4.89864
				4.86812
				4.85074
				4.91623
				4.80649
				5.07077
				4.90744
				5.18014
				5.09372
				-nan
				5.43254
				-nan
				-nan
				4.6012
				2.97097
				4.70372
				5.34534
				4.24507
				4.39294
				4.41398
				4.41395
				4.6823
				4.64518
				4.82764
				4.81899
				4.90661
				4.896
				4.96462
				4.9466
				5.00164
				4.98492
				5.01902
				5.0148
				5.0422
				5.03871
				5.10944
				5.08418
				5.15278
				5.16279
				5.18769
				5.12248
				4.98272
				5.29413
				3.01458
				4.24564
				4.6272
				3.62808
				4.72134
				5.04422
				4.65712
				4.51425
				4.78107
				4.70433
				4.8484
				4.80466
				4.88903
				4.86788
				4.9202
				4.90747
				4.94842
				4.94293
				4.97127
				4.97197
				4.99148
				4.99843
				5.01202
				5.02217
				5.03634
				5.04573
				5.04877
				5.07256
				5.0546
				5.05017
				5.19775
				5.19898
				3.86911
				4.81885
			</DataArray>
			<DataArray type="Float64" Name="velocity" NumberOfComponents="3" Format="ascii">
				-nan -nan 0.0 
				-nan -nan 0.0 
				0.757553 -0.291946 0.0 
				0.599035 0.0471043 0.0 
				1.54105 -0.547146 0.0 
				1.40492 -0.437427 0.0 
				1.77647 -0.0991351 0.0 
				1.60042 -0.121081 0.0 
				1.73992 0.437046 0.0 
				1.57023 0.164786 0.0 
				1.23659 0.769303 0.0 
				1.38592 0.47574 0.0 
				0.667565 0.696796 0.0 
				1.00974 0.579115 0.0 
				0.314615 0.32912 0.0 
				0.699549 0.410794 0.0 
				0.28395 -0.177094 0.0 
				0.627608 0.087026 0.0 
				0.594052 -0.55678 0.0 
				0.655659 -0.24075 0.0 
				1.10482 -0.653327 0.0 
				0.915055 -0.442064 0.0 
				1.55969 -0.3763 0.0 
				1.25354 -0.396926 0.0 
				1.57836 0.11269 0.0 
				1.44664 -0.111761 0.0 
				1.17632 0.474899 0.0 
				1.29273 0.219438 0.0 
				nan nan 0.0 
				0.966242 0.505546 0.0 
				-nan -nan 0.0 
				nan nan 0.0 
				-nan -nan 0.0 
				-nan -nan 0.0 
				1.21704 -0.248006 0.0 
				1.12158 -0.0021104 0.0 
				1.4623 -0.189238 0.0 
				1.50864 -0.312106 0.0 
				1.36108 0.00330579 0.0 
				1.50138 -0.0574933 0.0 
				1.20284 0.12337 0.0 
				1.33586 0.102612 0.0 
				1.08747 0.166871 0.0 
				1.18013 0.211752 0.0 
				0.989604 0.156825 0.0 
				1.02561 0.247522 0.0 
				0.922705 0.10543 0.0 
				0.904428 0.186151 0.0 
				0.898137 0.0477723 0.0 
				0.879598 0.0860675 0.0 
				0.922499 -0.0152093 0.0 
				0.861889 -0.0213826 0.0 
				0.984504 -0.0424069 0.0 
				0.943244 -0.107791 0.0 
				1.02865 -0.00185842 0.0 
				1.06367 -0.105388 0.0 
				0.998607 0.0607962 0.0 
				1.10702 -0.00950623 0.0 
				0.960482 0.0998451 0.0 
				1.03612 0.0943138 0.0 
				-nan -nan 0.0 
				1.00549 0.22325 0.0 
				-nan -nan 0.0 
				-nan -nan 0.0 
				0.951124 -0.189087 0.0 
				0.936108 -0.946957 0.0 
				1.09256 -0.0938812 0.0 
				0.954794 0.0545814 0.0 
				1.31655 -0.116868 0.0 
				1.2031 -0.188203 0.0 
				1.27384 0.0253003 0.0 
				1.26017 -0.0764903 0.0 
				1.14979 0.0980924 0.0 
				1.17497 0.0394118 0.0 
				1.06235 0.119316 0.0 
				1.0848 0.08236 0.0 
				0.995971 0.11555 0.0 
				1.02963 0.0874061 0.0 
				0.945209 0.086723 0.0 
				0.98853 0.0752359 0.0 
				0.922136 0.043035 0.0 
				0.964387 0.0505491 0.0 
				0.924581 0.00578729 0.0 
				0.943313 0.0209962 0.0 
				0.936596 -0.010697 0.0 
				0.940438 -0.00291683 0.0 
				0.93083 -0.00180216 0.0 
				0.93569 -0.0144457 0.0 
				0.906105 0.00348653 0.0 
				0.912477 -0.0291209 0.0 
				0.902136 0.00753706 0.0 
				0.910201 -0.0537761 0.0 
				1.00017 -0.0171461 0.0 
				0.947617 -0.0140234 0.0 
				0.581073 -0.698668 0.0 
				0.929954 -0.26244 0.0 
				0.945278 -0.227351 0.0 
				0.857148 -0.652901 0.0 
				1.03864 -0.163902 0.0 
				1.04918 -0.0533708 0.0 
				1.09897 -0.125174 0.0 
				1.16286 -0.189686 0.0 
				1.08475 -0.0487491 0.0 
				1.129 -0.0614942 0.0 
				1.05913 -0.0101476 0.0 
				1.09219 0.000860867 0.0 
				1.03685 0.0088326 0.0 
				1.05532 0.023714 0.0 
				1.01666 0.0169291 0.0 
				1.0283 0.0304195 0.0 
				0.999604 0.0166809 0.0 
				1.0072 0.0281516 0.0 
				0.98687 0.012606 0.0 
				0.994404 0.0229118 0.0 
				0.977709 0.00500508 0.0 
				0.980818 0.0167675 0.0 
				0.97049 -0.00469568 0.0 
				0.970957 0.00963209 0.0 
				0.963368 -0.0180844 0.0 
				0.960571 0.00094377 0.0 
				0.96366 -0.0371017 0.0 
				0.948863 -0.0166996 0.0 
				0.969319 -0.0637584 0.0 
				0.950354 -0.0451881 0.0 
				1.03567 -0.067799 0.0 
				0.965253 -0.0468909 0.0 
				1.01163 -0.544601 0.0 
				1.09974 -0.182443 0.0 
			</DataArray>
		</CellData>
		<Points>
		<DataArray type="Float64" NumberOfComponents="3" Format="ascii">
			0.5 0 0.0 
			0.46194 0.191342 0.0 
			0.353553 0.353553 0.0 
			0.191342 0.46194 0.0 
			-2.18557e-08 0.5 0.0 
			-0.191342 0.46194 0.0 
			-0.353553 0.353553 0.0 
			-0.46194 0.191342 0.0 
			-0.5 -4.37114e-08 0.0 
			-0.46194 -0.191342 0.0 
			-0.353553 -0.353553 0.0 
			-0.191342 -0.46194 0.0 
			6.55671e-08 -0.5 0.0 
			0.191342 -0.46194 0.0 
			0.353553 -0.353553 0.0 
			0.46194 -0.191342 0.0 
			0.884503 0.175939 0.0 
			0.749846 0.501031 0.0 
			0.501031 0.749846 0.0 
			0.175939 0.884503 0.0 
			-0.175939 0.884503 0.0 
			-0.501031 0.749846 0.0 
			-0.749846 0.501031 0.0 
			-0.884503 0.175939 0.0 
			-0.884503 -0.175939 0.0 
			-0.749846 -0.501031 0.0 
			-0.501031 -0.749846 0.0 
			-0.175939 -0.884503 0.0 
			0.175939 -0.884503 0.0 
			0.501031 -0.749846 0.0 
			0.749846 -0.501031 0.0 
			0.884503 -0.175938 0.0 
			2.20148 0 0.0 
			2.0339 0.842468 0.0 
			1.55668 1.55668 0.0 
			0.842468 2.0339 0.0 
			-9.62295e-08 2.20148 0.0 
			-0.842468 2.0339 0.0 
			-1.55668 1.55668 0.0 
			-2.0339 0.842468 0.0 
			-2.20148 -1.92459e-07 0.0 
			-2.0339 -0.842468 0.0 
			-1.55668 -1.55668 0.0 
			-0.842468 -2.0339 0.0 
			2.88689e-07 -2.20148 0.0 
			0.842468 -2.0339 0.0 
			1.55668 -1.55668 0.0 
			2.0339 -0.842468 0.0 
			6.28184 1.24954 0.0 
			5.32549 3.55838 0.0 
			3.55838 5.32549 0.0 
			1.24954 6.28184 0.0 
			-1.24954 6.28184 0.0 
			-3.55838 5.32549 0.0 
			-5.32549 3.55838 0.0 
			-6.28184 1.24954 0.0 
			-6.28184 -1.24954 0.0 
			-5.32549 -3.55838 0.0 
			-3.55838 -5.32549 0.0 
			-1.24954 -6.28184 0.0 
			1.24954 -6.28184 0.0 
			3.55838 -5.32549 0.0 
			5.32549 -3.55838 0.0 
			6.28184 -1.24953 0.0 
			20.0001 0 0.0 
			18.4777 7.6537 0.0 
			14.1422 14.1422 0.0 
			7.6537 18.4777 0.0 
			-8.74231e-07 20.0001 0.0 
			-7.6537 18.4777 0.0 
			-14.1422 14.1422 0.0 
			-18.4777 7.65369 0.0 
			-20.0001 -1.74846e-06 0.0 
			-18.4777 -7.6537 0.0 
			-14.1422 -14.1422 0.0 
			-7.65369 -18.4777 0.0 
			2.62269e-06 -20.0001 0.0 
			7.6537 -18.4777 0.0 
			14.1422 -14.1422 0.0 
			18.4777 -7.65369 0.0 
		</DataArray>
		</Points>
		<Cells>
			<DataArray type="UInt32" Name="connectivity" Format="ascii">
				0 16 1 
				0 31 16 
				1 17 2 
				1 16 17 
				2 18 3 
				2 17 18 
				3 19 4 
				3 18 19 
				4 20 5 
				4 19 20 
				5 21 6 
				5 20 21 
				6 22 7 
				6 21 22 
				7 23 8 
				7 22 23 
				8 24 9 
				8 23 24 
				9 25 10 
				9 24 25 
				10 26 11 
				10 25 26 
				11 27 12 
				11 26 27 
				12 28 13 
				12 27 28 
				13 29 14 
				13 28 29 
				14 30 15 
				14 29 30 
				15 31 0 
				15 30 31 
				16 32 33 
				16 31 32 
				17 33 34 
				17 16 33 
				18 34 35 
				18 17 34 
				19 35 36 
				19 18 35 
				20 36 37 
				20 19 36 
				21 37 38 
				21 20 37 
				22 38 39 
				22 21 38 
				23 39 40 
				23 22 39 
				24 40 41 
				24 23 40 
				25 41 42 
				25 24 41 
				26 42 43 
				26 25 42 
				27 43 44 
				27 26 43 
				28 44 45 
				28 27 44 
				29 45 46 
				29 28 45 
				30 46 47 
				30 29 46 
				31 47 32 
				31 30 47 
				32 48 33 
				32 63 48 
				33 49 34 
				33 48 49 
				34 50 35 
				34 49 50 
				35 51 36 
				35 50 51 
				36 52 37 
				36 51 52 
				37 53 38 
				37 52 53 
				38 54 39 
				38 53 54 
				39 55 40 
				39 54 55 
				40 56 41 
				40 55 56 
				41 57 42 
				41 56 57 
				42 58 43 
				42 57 58 
				43 59 44 
				43 58 59 
				44 60 45 
				44 59 60 
				45 61 46 
				45 60 61 
				46 62 47 
				46 61 62 
				47 63 32 
				47 62 63 
				48 64 65 
				48 63 64 
				49 65 66 
				49 48 65 
				50 66 67 
				50 49 66 
				51 67 68 
				51 50 67 
				52 68 69 
				52 51 68 
				53 69 70 
				53 52 69 
				54 70 71 
				54 53 70 
				55 71 72 
				55 54 71 
				56 72 73 
				56 55 72 
				57 73 74 
				57 56 73 
				58 74 75 
				58 57 74 
				59 75 76 
				59 58 75 
				60 76 77 
				60 59 76 
				61 77 78 
				61 60 77 
				62 78 79 
				62 61 78 
				63 79 64 
				63 62 79 
			</DataArray>
			<DataArray type="UInt32" Name="offsets" Format="ascii">
				3
				6
				9
				12
				15
				18
				21
				24
				27
				30
				33
				36
				39
				42
				45
				48
				51
				54
				57
				60
				63
				66
				69
				72
				75
				78
				81
				84
				87
				90
				93
				96
				99
				102
				105
				108
				111
				114
				117
				120
				123
				126
				129
				132
				135
				138
				141
				144
				147
				150
				153
				156
				159
				162
				165
				168
				171
				174
				177
				180
				183
				186
				189
				192
				195
				198
				201
				204
				207
				210
				213
				216
				219
				222
				225
				228
				231
				234
				237
				240
				243
				246
				249
				252
				255
				258
				261
				264
				267
				270
				273
				276
				279
				282
				285
				288
				291
				294
				297
				300
				303
				306
				309
				312
				315
				318
				321
				324
				327
				330
				333
				336
				339
				342
				345
				348
				351
				354
				357
				360
				363
				366
				369
				372
				375
				378
				381
				384
			</DataArray>
			<DataArray type="Int32" Name="types" Format="ascii">
				5
				5
				5
				5
				5
				5
				5
				5
				5
				5
				5
				5
				5
				5
				5
				5
				5
				5
				5
				5
				5
				5
				5
				5
				5
				5
				5
				5
				5
				5
				5
				5
				5
				5
				5
				5
				5
				5
				5
				5
				5
				5
				5
				5
				5
				5
				5
				5
				5
				5
				5
				5
				5
				5
				5
				5
				5
				5
				5
				5
				5
				5
				5
				5
				5
				5
				5
				5
				5
				5
				5
				5
				5
				5
				5
				5
				5
				5
				5
				5
				5
				5
				5
				5
				5
				5
				5
				5
				5
				5
				5
				5
				5
				5
				5
				5
				5
				5
				5
				5
				5
				5
				5
				5
				5
				5
				5
				5
				5
				5
				5
				5
				5
				5
				5
				5
				5
				5
				5
				5
				5
				5
				5
				5
				5
				5
				5
				5
			</DataArray>
		</Cells>
	</Piece>
</UnstructuredGrid>
</VTKFile>