<VTKFile type="UnstructuredGrid" version="0.1" byte_order="LittleEndian">
<UnstructuredGrid>
	<Piece NumberOfPoints="4224" NumberOfCells="8192">
		<PointData Scalars="density" Vectors="velocity">
			<DataArray type="Float64" Name="density" Format="ascii">
				0.266442
				0.266332
				0.26604
				0.265589
				0.264919
				0.263953
				0.26266
				0.261028
				0.259061
				0.256773
				0.254187
				0.251329
				0.248227
				0.24491
				0.241407
				0.237744
				0.233948
				0.230046
				0.226065
				0.222035
				0.21799
				0.213958
				0.209973
				0.206078
				0.202319
				0.198746
				0.195413
				0.19238
				0.18973
				0.187547
				0.185898
				0.184866
				0.184512
				0.184851
				0.185872
				0.187505
				0.189681
				0.192326
				0.195354
				0.198684
				0.202254
				0.206007
				0.209896
				0.21387
				0.217887
				0.221916
				0.225921
				0.229873
				0.233746
				0.237509
				0.241141
				0.24462
				0.247926
				0.251039
				0.25394
				0.256614
				0.259047
				0.261226
				0.263138
				0.264772
				0.266122
				0.267179
				0.267938
				0.268396
				0.268548
				0.268396
				0.267939
				0.26718
				0.266123
				0.264774
				0.263139
				0.261227
				0.259049
				0.256616
				0.253942
				0.251042
				0.247929
				0.244624
				0.241145
				0.237512
				0.23375
				0.229879
				0.225926
				0.22192
				0.217892
				0.213876
				0.209901
				0.206015
				0.20226
				0.19869
				0.195361
				0.192333
				0.189689
				0.187514
				0.185881
				0.184859
				0.184521
				0.184875
				0.185907
				0.187555
				0.189738
				0.192387
				0.19542
				0.198753
				0.202326
				0.206084
				0.209978
				0.213963
				0.217995
				0.22204
				0.22607
				0.230049
				0.233952
				0.237748
				0.24141
				0.244913
				0.24823
				0.251332
				0.254189
				0.256775
				0.259063
				0.26103
				0.262662
				0.263954
				0.264919
				0.26559
				0.26604
				0.266332
				0.266377
				0.266171
				0.265816
				0.265294
				0.264529
				0.26347
				0.262101
				0.260419
				0.258434
				0.256162
				0.253626
				0.250852
				0.247863
				0.244686
				0.241346
				0.237867
				0.234273
				0.230589
				0.226842
				0.22306
				0.219273
				0.215512
				0.211811
				0.208214
				0.204764
				0.201513
				0.198515
				0.195839
				0.19356
				0.191755
				0.190491
				0.18984
				0.189832
				0.190473
				0.191723
				0.193517
				0.195786
				0.198454
				0.201442
				0.204685
				0.208125
				0.211712
				0.215401
				0.219148
				0.222918
				0.22668
				0.230404
				0.234064
				0.237633
				0.241087
				0.244408
				0.247573
				0.250567
				0.25337
				0.255967
				0.258346
				0.260493
				0.262397
				0.264047
				0.265435
				0.266554
				0.267399
				0.267964
				0.268248
				0.268248
				0.267965
				0.267399
				0.266555
				0.265436
				0.264048
				0.262398
				0.260495
				0.258348
				0.25597
				0.253372
				0.250569
				0.247576
				0.244411
				0.24109
				0.237635
				0.234068
				0.230409
				0.226685
				0.222922
				0.219152
				0.215406
				0.211718
				0.208132
				0.204691
				0.201449
				0.198461
				0.195793
				0.193525
				0.191731
				0.190481
				0.18984
				0.189848
				0.190499
				0.191763
				0.193568
				0.195846
				0.198522
				0.20152
				0.20477
				0.208219
				0.211817
				0.215517
				0.219278
				0.223065
				0.226847
				0.230593
				0.234276
				0.237871
				0.241349
				0.24469
				0.247866
				0.250854
				0.253629
				0.256164
				0.258436
				0.260421
				0.262102
				0.263471
				0.264529
				0.265295
				0.265816
				0.266171
				0.266377
				0.266187
				0.266075
				0.26579
				0.265375
				0.264777
				0.263937
				0.26283
				0.261454
				0.259811
				0.257916
				0.255783
				0.253434
				0.250886
				0.248161
				0.245278
				0.242258
				0.239121
				0.235887
				0.23258
				0.229223
				0.225842
				0.222466
				0.219125
				0.215854
				0.212694
				0.209687
				0.206884
				0.204341
				0.202121
				0.200293
				0.198922
				0.198067
				0.197773
				0.198054
				0.198895
				0.200253
				0.20207
				0.204278
				0.20681
				0.209603
				0.212601
				0.215752
				0.219013
				0.222345
				0.225712
				0.229082
				0.232429
				0.235726
				0.23895
				0.24208
				0.245096
				0.247981
				0.250716
				0.253289
				0.255684
				0.257888
				0.259892
				0.261683
				0.263254
				0.264597
				0.265704
				0.266571
				0.267193
				0.267568
				0.267693
				0.267568
				0.267194
				0.266572
				0.265705
				0.264598
				0.263255
				0.261685
				0.259893
				0.25789
				0.255686
				0.253291
				0.250719
				0.247983
				0.245099
				0.242083
				0.238953
				0.23573
				0.232433
				0.229086
				0.225716
				0.22235
				0.219018
				0.215757
				0.212606
				0.209609
				0.206816
				0.204284
				0.202076
				0.200261
				0.198903
				0.198061
				0.19778
				0.198075
				0.198929
				0.2003
				0.202128
				0.204347
				0.20689
				0.209693
				0.212699
				0.21586
				0.21913
				0.222471
				0.225847
				0.229227
				0.232583
				0.23589
				0.239124
				0.242261
				0.245281
				0.248164
				0.250889
				0.253436
				0.255786
				0.257918
				0.259813
				0.261455
				0.262831
				0.263937
				0.264778
				0.265375
				0.26579
				0.266075
				0.265697
				0.265481
				0.26513
				0.264644
				0.263962
				0.263054
				0.261919
				0.260559
				0.258984
				0.257205
				0.255237
				0.253092
				0.250784
				0.248329
				0.245741
				0.243038
				0.240235
				0.237353
				0.234411
				0.231433
				0.228443
				0.225468
				0.222538
				0.219689
				0.216958
				0.214387
				0.212027
				0.209928
				0.208148
				0.206745
				0.205771
				0.205269
				0.205263
				0.205752
				0.206713
				0.208104
				0.209872
				0.211961
				0.214313
				0.216875
				0.2196
				0.222443
				0.225369
				0.228341
				0.23133
				0.234309
				0.237253
				0.240141
				0.242953
				0.24567
				0.248276
				0.250756
				0.253096
				0.255284
				0.257308
				0.259158
				0.260825
				0.262301
				0.26358
				0.264654
				0.265519
				0.266172
				0.266609
				0.266828
				0.266828
				0.266609
				0.266172
				0.26552
				0.264655
				0.263581
				0.262303
				0.260826
				0.259159
				0.257309
				0.255286
				0.253098
				0.250758
				0.248279
				0.245673
				0.242956
				0.240144
				0.237257
				0.234312
				0.231334
				0.228345
				0.225373
				0.222448
				0.219604
				0.21688
				0.214318
				0.211966
				0.209878
				0.20811
				0.206719
				0.205758
				0.205269
				0.205276
				0.205778
				0.206752
				0.208154
				0.209934
				0.212032
				0.214393
				0.216962
				0.219694
				0.222543
				0.225472
				0.228447
				0.231437
				0.234415
				0.237356
				0.240238
				0.24304
				0.245744
				0.248331
				0.250786
				0.253094
				0.255239
				0.257207
				0.258985
				0.26056
				0.26192
				0.263055
				0.263963
				0.264645
				0.265131
				0.265481
				0.265697
				0.26502
				0.264901
				0.264611
				0.264209
				0.263653
				0.262906
				0.261967
				0.260843
				0.259543
				0.258073
				0.256442
				0.254657
				0.252728
				0.250664
				0.248477
				0.246177
				0.24378
				0.241301
				0.238758
				0.23617
				0.233558
				0.230947
				0.228362
				0.225833
				0.223393
				0.22108
				0.218932
				0.216995
				0.215316
				0.213942
				0.21292
				0.212286
				0.212068
				0.212274
				0.212896
				0.213908
				0.215271
				0.216941
				0.21887
				0.22101
				0.223318
				0.225753
				0.228279
				0.230863
				0.233476
				0.236092
				0.238688
				0.241243
				0.243738
				0.246157
				0.248484
				0.250705
				0.252807
				0.254781
				0.256615
				0.2583
				0.259829
				0.261195
				0.262391
				0.263411
				0.264252
				0.26491
				0.265382
				0.265666
				0.265761
				0.265666
				0.265382
				0.26491
				0.264253
				0.263412
				0.262391
				0.261196
				0.259831
				0.258302
				0.256616
				0.254782
				0.252809
				0.250707
				0.248486
				0.246159
				0.243741
				0.241246
				0.238691
				0.236096
				0.23348
				0.230867
				0.228283
				0.225758
				0.223323
				0.221015
				0.218875
				0.216946
				0.215277
				0.213913
				0.212902
				0.21228
				0.212074
				0.212292
				0.212925
				0.213948
				0.215321
				0.217
				0.218937
				0.221084
				0.223398
				0.225837
				0.228366
				0.23095
				0.233562
				0.236173
				0.238761
				0.241304
				0.243783
				0.24618
				0.248479
				0.250667
				0.25273
				0.254659
				0.256443
				0.258074
				0.259544
				0.260844
				0.261968
				0.262906
				0.263654
				0.26421
				0.264612
				0.264901
				0.264017
				0.263808
				0.26348
				0.263033
				0.262425
				0.261654
				0.260731
				0.259665
				0.258459
				0.257119
				0.255648
				0.254051
				0.252334
				0.250503
				0.24857
				0.246544
				0.244439
				0.242269
				0.24005
				0.237801
				0.235541
				0.233295
				0.231086
				0.228942
				0.226895
				0.224978
				0.223228
				0.221684
				0.220384
				0.219368
				0.218667
				0.218308
				0.218303
				0.218654
				0.219345
				0.220354
				0.221646
				0.223184
				0.224929
				0.226842
				0.228887
				0.231029
				0.23324
				0.23549
				0.237755
				0.240013
				0.242244
				0.244431
				0.246558
				0.248611
				0.250576
				0.252444
				0.254203
				0.255844
				0.25736
				0.258744
				0.259989
				0.261089
				0.262041
				0.26284
				0.263483
				0.263967
				0.264291
				0.264454
				0.264454
				0.264291
				0.263967
				0.263483
				0.26284
				0.262042
				0.26109
				0.25999
				0.258745
				0.257362
				0.255846
				0.254204
				0.252446
				0.250578
				0.248613
				0.24656
				0.244434
				0.242247
				0.240016
				0.237758
				0.235493
				0.233243
				0.231033
				0.22889
				0.226846
				0.224933
				0.223188
				0.22165
				0.220358
				0.21935
				0.218658
				0.218308
				0.218313
				0.218672
				0.219373
				0.220389
				0.221688
				0.223232
				0.224982
				0.226899
				0.228946
				0.231089
				0.233298
				0.235544
				0.237803
				0.240052
				0.242271
				0.244441
				0.246546
				0.248572
				0.250505
				0.252335
				0.254053
				0.25565
				0.257121
				0.25846
				0.259666
				0.260732
				0.261655
				0.262426
				0.263034
				0.26348
				0.263809
				0.264017
				0.262845
				0.262741
				0.26249
				0.262143
				0.261666
				0.261047
				0.2603
				0.259435
				0.258456
				0.257365
				0.256162
				0.254851
				0.253435
				0.251918
				0.25031
				0.248617
				0.246851
				0.245022
				0.243145
				0.241234
				0.239307
				0.237382
				0.23548
				0.233625
				0.231842
				0.23016
				0.228607
				0.227217
				0.226021
				0.22505
				0.224332
				0.22389
				0.223739
				0.223884
				0.22432
				0.225032
				0.225998
				0.227191
				0.228578
				0.230129
				0.231812
				0.233596
				0.235454
				0.237361
				0.239292
				0.241229
				0.243152
				0.245044
				0.246891
				0.24868
				0.250398
				0.252037
				0.253585
				0.255037
				0.256383
				0.257618
				0.258737
				0.259734
				0.260607
				0.26135
				0.261963
				0.262441
				0.262784
				0.26299
				0.263059
				0.26299
				0.262784
				0.262441
				0.261963
				0.261351
				0.260607
				0.259735
				0.258738
				0.257619
				0.256384
				0.255038
				0.253587
				0.252038
				0.2504
				0.248682
				0.246893
				0.245046
				0.243154
				0.241232
				0.239295
				0.237363
				0.235457
				0.233599
				0.231815
				0.230133
				0.228582
				0.227195
				0.226002
				0.225036
				0.224324
				0.223888
				0.223744
				0.223895
				0.224336
				0.225054
				0.226025
				0.227221
				0.228611
				0.230163
				0.231846
				0.233628
				0.235483
				0.237385
				0.23931
				0.241237
				0.243147
				0.245024
				0.246853
				0.248619
				0.250311
				0.25192
				0.253436
				0.254852
				0.256164
				0.257366
				0.258457
				0.259436
				0.260301
				0.261047
				0.261667
				0.262144
				0.262491
				0.262741
				0.261459
				0.261297
				0.261041
				0.260686
				0.260207
				0.259617
				0.258929
				0.258145
				0.257265
				0.256291
				0.255224
				0.254067
				0.252823
				0.251499
				0.2501
				0.248635
				0.247113
				0.245545
				0.243943
				0.24232
				0.240692
				0.239077
				0.237494
				0.235963
				0.234508
				0.233153
				0.231924
				0.230847
				0.229947
				0.229248
				0.22877
				0.228526
				0.228524
				0.228765
				0.22924
				0.229937
				0.230835
				0.231911
				0.23314
				0.234497
				0.235954
				0.237489
				0.239078
				0.240701
				0.242337
				0.243971
				0.245586
				0.24717
				0.248709
				0.250194
				0.251614
				0.252961
				0.254228
				0.255409
				0.256498
				0.25749
				0.258382
				0.259169
				0.259848
				0.260418
				0.260876
				0.261221
				0.261452
				0.261567
				0.261567
				0.261452
				0.261222
				0.260877
				0.260419
				0.259849
				0.259169
				0.258382
				0.257491
				0.256499
				0.25541
				0.25423
				0.252962
				0.251615
				0.250195
				0.248711
				0.247172
				0.245588
				0.243973
				0.242339
				0.240703
				0.239081
				0.237492
				0.235957
				0.2345
				0.233143
				0.231914
				0.230838
				0.22994
				0.229244
				0.228768
				0.228528
				0.22853
				0.228773
				0.229252
				0.229951
				0.23085
				0.231927
				0.233156
				0.234511
				0.235966
				0.237497
				0.23908
				0.240695
				0.242322
				0.243945
				0.245547
				0.247115
				0.248637
				0.250101
				0.2515
				0.252824
				0.254068
				0.255225
				0.256292
				0.257266
				0.258145
				0.25893
				0.259618
				0.260208
				0.260686
				0.261042
				0.261298
				0.261459
				0.260048
				0.259976
				0.259804
				0.259554
				0.259204
				0.258753
				0.258217
				0.2576
				0.256901
				0.256121
				0.255263
				0.254327
				0.253318
				0.252239
				0.251096
				0.249895
				0.248643
				0.247348
				0.246021
				0.244671
				0.243312
				0.241957
				0.240623
				0.239326
				0.238084
				0.236919
				0.23585
				0.234898
				0.234084
				0.233428
				0.232946
				0.232651
				0.232551
				0.232649
				0.232943
				0.233425
				0.234081
				0.234895
				0.235848
				0.236919
				0.238088
				0.239334
				0.240637
				0.241978
				0.243341
				0.24471
				0.24607
				0.24741
				0.248719
				0.249985
				0.251201
				0.252359
				0.253453
				0.254476
				0.255425
				0.256293
				0.257079
				0.257778
				0.258389
				0.25891
				0.259337
				0.259672
				0.259911
				0.260055
				0.260103
				0.260055
				0.259911
				0.259672
				0.259338
				0.25891
				0.25839
				0.257779
				0.25708
				0.256294
				0.255425
				0.254477
				0.253454
				0.252361
				0.251202
				0.249986
				0.24872
				0.247412
				0.246072
				0.244712
				0.243343
				0.24198
				0.240639
				0.239336
				0.238091
				0.236922
				0.235851
				0.234898
				0.234084
				0.233428
				0.232946
				0.232652
				0.232554
				0.232654
				0.232949
				0.233431
				0.234087
				0.234901
				0.235852
				0.236922
				0.238087
				0.239328
				0.240625
				0.241959
				0.243314
				0.244673
				0.246022
				0.24735
				0.248644
				0.249897
				0.251098
				0.25224
				0.253319
				0.254328
				0.255264
				0.256122
				0.256902
				0.257601
				0.258218
				0.258754
				0.259204
				0.259555
				0.259804
				0.259977
				0.258608
				0.258511
				0.258348
				0.258108
				0.257778
				0.257372
				0.256896
				0.25635
				0.255735
				0.255053
				0.254306
				0.253497
				0.252628
				0.251705
				0.250731
				0.249712
				0.248655
				0.247567
				0.246458
				0.245336
				0.244213
				0.243101
				0.242016
				0.24097
				0.23998
				0.239063
				0.238236
				0.237515
				0.236916
				0.236454
				0.236138
				0.235978
				0.235978
				0.236138
				0.236454
				0.236918
				0.237518
				0.238241
				0.239071
				0.239991
				0.240985
				0.242036
				0.243128
				0.244246
				0.245377
				0.246508
				0.247627
				0.248725
				0.249792
				0.250821
				0.251805
				0.252738
				0.253614
				0.25443
				0.255181
				0.255865
				0.256478
				0.257019
				0.257486
				0.257877
				0.258191
				0.258427
				0.258585
				0.258664
				0.258664
				0.258585
				0.258427
				0.258191
				0.257877
				0.257486
				0.25702
				0.256479
				0.255866
				0.255182
				0.254431
				0.253615
				0.252739
				0.251806
				0.250822
				0.249793
				0.248726
				0.247628
				0.246509
				0.245379
				0.244248
				0.24313
				0.242038
				0.240987
				0.239993
				0.239073
				0.238244
				0.237521
				0.236921
				0.236457
				0.236141
				0.235981
				0.235981
				0.236141
				0.236456
				0.236919
				0.237518
				0.238239
				0.239066
				0.239982
				0.240972
				0.242018
				0.243103
				0.244214
				0.245337
				0.246459
				0.247569
				0.248657
				0.249714
				0.250732
				0.251706
				0.252629
				0.253498
				0.254307
				0.255054
				0.255736
				0.256351
				0.256896
				0.257373
				0.257779
				0.258108
				0.258348
				0.258511
				0.258608
				0.257271
				0.257234
				0.25714
				0.256988
				0.25676
				0.256461
				0.256102
				0.255684
				0.255207
				0.254673
				0.254085
				0.253444
				0.252754
				0.252016
				0.251236
				0.250416
				0.249562
				0.248681
				0.247778
				0.246862
				0.245941
				0.245026
				0.244127
				0.243256
				0.242427
				0.241651
				0.240942
				0.240315
				0.239781
				0.239352
				0.239038
				0.238847
				0.238783
				0.238848
				0.239041
				0.239356
				0.239787
				0.240323
				0.240953
				0.241665
				0.242445
				0.243279
				0.244155
				0.245059
				0.245981
				0.246908
				0.247831
				0.248741
				0.249629
				0.25049
				0.251316
				0.252103
				0.252845
				0.253538
				0.25418
				0.254768
				0.255299
				0.255771
				0.256183
				0.256533
				0.256821
				0.257046
				0.257207
				0.257303
				0.257336
				0.257304
				0.257207
				0.257046
				0.256822
				0.256534
				0.256183
				0.255771
				0.255299
				0.254769
				0.254181
				0.253539
				0.252845
				0.252103
				0.251317
				0.250491
				0.249631
				0.248742
				0.247832
				0.246909
				0.245982
				0.245061
				0.244157
				0.243281
				0.242447
				0.241667
				0.240955
				0.240325
				0.239789
				0.239358
				0.239043
				0.238851
				0.238785
				0.238849
				0.23904
				0.239354
				0.239783
				0.240317
				0.240944
				0.241653
				0.242428
				0.243258
				0.244129
				0.245028
				0.245943
				0.246863
				0.247779
				0.248682
				0.249563
				0.250417
				0.251237
				0.252017
				0.252755
				0.253445
				0.254085
				0.254674
				0.255207
				0.255684
				0.256103
				0.256462
				0.25676
				0.256988
				0.25714
				0.257234
				0.25603
				0.255987
				0.255902
				0.255755
				0.255545
				0.25528
				0.254965
				0.254602
				0.254191
				0.253734
				0.253234
				0.252692
				0.25211
				0.251491
				0.250839
				0.250157
				0.24945
				0.248724
				0.247984
				0.247237
				0.246491
				0.245755
				0.245038
				0.24435
				0.243702
				0.243103
				0.242565
				0.242099
				0.241712
				0.241415
				0.241213
				0.241111
				0.241112
				0.241216
				0.24142
				0.241719
				0.242108
				0.242578
				0.243119
				0.243721
				0.244373
				0.245065
				0.245786
				0.246527
				0.247277
				0.248029
				0.248774
				0.249505
				0.250217
				0.250902
				0.251558
				0.252179
				0.252763
				0.253305
				0.253804
				0.254258
				0.254665
				0.255023
				0.255332
				0.255591
				0.255798
				0.255954
				0.256059
				0.256111
				0.256111
				0.256059
				0.255955
				0.255799
				0.255591
				0.255333
				0.255024
				0.254665
				0.254259
				0.253805
				0.253306
				0.252763
				0.25218
				0.251559
				0.250903
				0.250218
				0.249506
				0.248775
				0.24803
				0.247279
				0.246528
				0.245788
				0.245067
				0.244375
				0.243722
				0.24312
				0.24258
				0.24211
				0.241721
				0.241422
				0.241218
				0.241114
				0.241113
				0.241215
				0.241417
				0.241714
				0.2421
				0.242567
				0.243105
				0.243703
				0.244352
				0.24504
				0.245757
				0.246493
				0.247238
				0.247985
				0.248725
				0.249452
				0.250158
				0.25084
				0.251492
				0.252111
				0.252693
				0.253235
				0.253735
				0.254191
				0.254602
				0.254966
				0.25528
				0.255545
				0.255756
				0.255902
				0.255987
				0.25603
				0.25494
				0.254929
				0.254892
				0.254809
				0.254669
				0.254478
				0.254246
				0.253974
				0.253662
				0.253314
				0.252928
				0.252508
				0.252054
				0.25157
				0.251056
				0.250518
				0.249957
				0.249378
				0.248786
				0.248187
				0.247586
				0.246989
				0.246405
				0.245841
				0.245305
				0.244805
				0.244351
				0.24395
				0.24361
				0.243337
				0.243139
				0.243018
				0.242978
				0.24302
				0.243143
				0.243344
				0.243619
				0.243962
				0.244366
				0.244823
				0.245326
				0.245865
				0.246433
				0.24702
				0.24762
				0.248225
				0.248828
				0.249422
				0.250004
				0.250567
				0.251108
				0.251622
				0.252107
				0.252561
				0.25298
				0.253364
				0.25371
				0.254018
				0.254286
				0.254514
				0.254701
				0.254847
				0.254951
				0.255014
				0.255035
				0.255014
				0.254952
				0.254847
				0.254701
				0.254514
				0.254286
				0.254018
				0.25371
				0.253364
				0.252981
				0.252561
				0.252108
				0.251623
				0.251108
				0.250568
				0.250005
				0.249423
				0.248829
				0.248226
				0.247621
				0.247021
				0.246434
				0.245866
				0.245327
				0.244825
				0.244367
				0.243963
				0.24362
				0.243346
				0.243145
				0.243022
				0.24298
				0.24302
				0.24314
				0.243339
				0.243611
				0.243951
				0.244352
				0.244807
				0.245306
				0.245842
				0.246406
				0.24699
				0.247587
				0.248188
				0.248787
				0.249379
				0.249958
				0.250519
				0.251057
				0.25157
				0.252055
				0.252509
				0.252929
				0.253314
				0.253663
				0.253974
				0.254246
				0.254478
				0.254669
				0.25481
				0.254892
				0.254929
				0.253992
				0.253985
				0.25395
				0.253864
				0.253732
				0.253564
				0.253364
				0.253131
				0.252868
				0.252576
				0.252254
				0.251904
				0.251529
				0.251129
				0.250708
				0.250268
				0.249812
				0.249343
				0.248867
				0.248387
				0.247908
				0.247437
				0.246979
				0.246541
				0.246129
				0.24575
				0.24541
				0.245116
				0.244874
				0.244688
				0.244562
				0.244498
				0.2445
				0.244565
				0.244693
				0.244882
				0.245127
				0.245424
				0.245766
				0.246147
				0.246562
				0.247003
				0.247464
				0.247937
				0.248418
				0.2489
				0.249379
				0.249849
				0.250307
				0.250748
				0.25117
				0.251569
				0.251944
				0.252293
				0.252613
				0.252905
				0.253165
				0.253395
				0.253593
				0.253759
				0.253891
				0.253991
				0.254058
				0.254091
				0.254091
				0.254058
				0.253991
				0.253891
				0.253759
				0.253593
				0.253395
				0.253166
				0.252905
				0.252614
				0.252293
				0.251945
				0.25157
				0.25117
				0.250748
				0.250307
				0.24985
				0.24938
				0.248901
				0.248419
				0.247938
				0.247465
				0.247004
				0.246563
				0.246149
				0.245767
				0.245425
				0.245128
				0.244883
				0.244695
				0.244566
				0.244501
				0.2445
				0.244563
				0.244689
				0.244875
				0.245118
				0.245412
				0.245751
				0.24613
				0.246542
				0.24698
				0.247438
				0.247909
				0.248388
				0.248868
				0.249344
				0.249813
				0.250269
				0.250709
				0.25113
				0.251529
				0.251905
				0.252254
				0.252576
				0.252869
				0.253132
				0.253364
				0.253564
				0.253732
				0.253864
				0.25395
				0.253985
				0.253992
				0.253189
				0.253194
				0.253191
				0.253149
				0.253063
				0.252943
				0.252798
				0.252628
				0.252432
				0.252212
				0.251969
				0.251703
				0.251415
				0.251107
				0.250781
				0.250439
				0.250083
				0.249716
				0.249341
				0.248961
				0.248581
				0.248205
				0.247837
				0.247482
				0.247146
				0.246834
				0.24655
				0.2463
				0.246089
				0.24592
				0.245798
				0.245723
				0.245699
				0.245725
				0.245802
				0.245927
				0.246098
				0.246311
				0.246563
				0.246849
				0.247164
				0.247502
				0.247859
				0.248229
				0.248607
				0.248989
				0.24937
				0.249746
				0.250114
				0.25047
				0.250813
				0.251139
				0.251446
				0.251733
				0.251998
				0.25224
				0.252459
				0.252653
				0.252823
				0.252966
				0.253084
				0.253177
				0.253242
				0.253282
				0.253295
				0.253282
				0.253242
				0.253177
				0.253085
				0.252967
				0.252823
				0.252654
				0.252459
				0.252241
				0.251998
				0.251733
				0.251446
				0.251139
				0.250813
				0.250471
				0.250115
				0.249747
				0.249371
				0.24899
				0.248608
				0.24823
				0.24786
				0.247503
				0.247165
				0.24685
				0.246565
				0.246313
				0.246099
				0.245928
				0.245803
				0.245727
				0.2457
				0.245724
				0.245799
				0.245921
				0.24609
				0.246301
				0.246551
				0.246835
				0.247147
				0.247483
				0.247838
				0.248206
				0.248582
				0.248962
				0.249342
				0.249717
				0.250084
				0.25044
				0.250782
				0.251108
				0.251415
				0.251703
				0.251969
				0.252213
				0.252433
				0.252628
				0.252798
				0.252943
				0.253063
				0.253149
				0.253191
				0.253194
				0.252523
				0.252536
				0.252528
				0.252479
				0.252396
				0.252293
				0.25217
				0.252026
				0.251863
				0.251681
				0.25148
				0.251262
				0.251027
				0.250778
				0.250514
				0.250239
				0.249954
				0.249662
				0.249364
				0.249065
				0.248767
				0.248474
				0.24819
				0.247919
				0.247664
				0.24743
				0.247221
				0.24704
				0.246891
				0.246777
				0.2467
				0.246662
				0.246663
				0.246703
				0.246782
				0.246898
				0.247049
				0.247232
				0.247443
				0.247679
				0.247935
				0.248209
				0.248494
				0.248789
				0.249088
				0.249388
				0.249686
				0.249979
				0.250265
				0.25054
				0.250803
				0.251052
				0.251286
				0.251504
				0.251704
				0.251885
				0.252047
				0.25219
				0.252314
				0.252417
				0.252499
				0.252561
				0.252603
				0.252623
				0.252623
				0.252603
				0.252561
				0.252499
				0.252417
				0.252314
				0.252191
				0.252048
				0.251885
				0.251704
				0.251504
				0.251287
				0.251053
				0.250804
				0.25054
				0.250265
				0.24998
				0.249687
				0.249389
				0.249088
				0.248789
				0.248495
				0.248209
				0.247936
				0.24768
				0.247444
				0.247233
				0.24705
				0.2469
				0.246783
				0.246704
				0.246664
				0.246663
				0.246701
				0.246778
				0.246892
				0.247041
				0.247222
				0.247431
				0.247665
				0.247919
				0.248191
				0.248475
				0.248768
				0.249066
				0.249365
				0.249662
				0.249955
				0.25024
				0.250515
				0.250778
				0.251028
				0.251263
				0.251481
				0.251681
				0.251864
				0.252027
				0.25217
				0.252293
				0.252397
				0.252479
				0.252528
				0.252536
				0.252523
				0.251972
				0.251985
				0.251999
				0.25198
				0.251927
				0.251854
				0.251767
				0.251663
				0.251543
				0.251408
				0.251259
				0.251095
				0.250918
				0.250728
				0.250527
				0.250316
				0.250097
				0.249871
				0.24964
				0.249406
				0.249173
				0.248942
				0.248716
				0.248499
				0.248293
				0.248102
				0.24793
				0.247778
				0.247649
				0.247547
				0.247473
				0.247428
				0.247413
				0.24743
				0.247476
				0.247552
				0.247657
				0.247787
				0.24794
				0.248115
				0.248307
				0.248514
				0.248732
				0.248959
				0.249191
				0.249426
				0.24966
				0.249892
				0.250118
				0.250337
				0.250548
				0.250749
				0.250938
				0.251114
				0.251278
				0.251427
				0.251561
				0.251681
				0.251785
				0.251873
				0.251946
				0.252002
				0.252043
				0.252067
				0.252075
				0.252067
				0.252043
				0.252002
				0.251946
				0.251873
				0.251785
				0.251681
				0.251562
				0.251427
				0.251278
				0.251115
				0.250938
				0.250749
				0.250549
				0.250338
				0.250119
				0.249892
				0.249661
				0.249427
				0.249192
				0.24896
				0.248733
				0.248515
				0.248308
				0.248116
				0.247941
				0.247787
				0.247657
				0.247553
				0.247477
				0.24743
				0.247414
				0.247429
				0.247473
				0.247548
				0.24765
				0.247778
				0.24793
				0.248103
				0.248294
				0.248499
				0.248717
				0.248942
				0.249173
				0.249407
				0.24964
				0.249871
				0.250097
				0.250317
				0.250528
				0.250728
				0.250918
				0.251095
				0.251259
				0.251409
				0.251544
				0.251663
				0.251767
				0.251855
				0.251928
				0.251981
				0.251999
				0.251985
				0.251533
				0.251555
				0.251562
				0.251533
				0.251483
				0.251421
				0.251347
				0.251261
				0.251162
				0.251051
				0.250929
				0.250796
				0.250653
				0.250502
				0.250341
				0.250174
				0.250001
				0.249823
				0.249642
				0.24946
				0.249279
				0.249102
				0.24893
				0.248765
				0.248611
				0.24847
				0.248344
				0.248235
				0.248146
				0.248078
				0.248032
				0.248009
				0.248009
				0.248034
				0.248082
				0.248152
				0.248243
				0.248353
				0.24848
				0.248623
				0.248778
				0.248944
				0.249117
				0.249295
				0.249477
				0.249659
				0.24984
				0.250019
				0.250192
				0.25036
				0.25052
				0.250671
				0.250814
				0.250946
				0.251067
				0.251178
				0.251276
				0.251363
				0.251438
				0.2515
				0.251551
				0.251588
				0.251613
				0.251626
				0.251626
				0.251613
				0.251588
				0.251551
				0.251501
				0.251438
				0.251363
				0.251277
				0.251178
				0.251068
				0.250946
				0.250814
				0.250672
				0.25052
				0.25036
				0.250193
				0.250019
				0.249841
				0.24966
				0.249477
				0.249296
				0.249117
				0.248944
				0.248779
				0.248624
				0.248481
				0.248354
				0.248243
				0.248152
				0.248082
				0.248035
				0.24801
				0.248009
				0.248032
				0.248078
				0.248147
				0.248236
				0.248345
				0.248471
				0.248612
				0.248766
				0.24893
				0.249102
				0.24928
				0.249461
				0.249642
				0.249823
				0.250001
				0.250174
				0.250342
				0.250502
				0.250654
				0.250796
				0.250929
				0.251051
				0.251162
				0.251261
				0.251348
				0.251421
				0.251483
				0.251533
				0.251562
				0.251555
				0.251533
				0.251176
				0.251191
				0.251213
				0.251207
				0.251175