<VTKFile type="UnstructuredGrid" version="0.1" byte_order="LittleEndian">
<UnstructuredGrid>
	<Piece NumberOfPoints="4224" NumberOfCells="8192">
		<CellData Scalars="density" Vectors="velocity">
			<DataArray type="Float64" Name="density" Format="ascii">
				1.01926
				1.01923
				1.01915
				1.01933
				1.01841
				1.01884
				1.01704
				1.01784
				1.01492
				1.01619
				1.01197
				1.01377
				1.0081
				1.01051
				1.00329
				1.00637
				0.997514
				1.0013
				0.990759
				0.995307
				0.98304
				0.988385
				0.97438
				0.980557
				0.964823
				0.971856
				0.954427
				0.962333
				0.943256
				0.95205
				0.931396
				0.941082
				0.918926
				0.929515
				0.905967
				0.917445
				0.892622
				0.904984
				0.879034
				0.89225
				0.865344
				0.879382
				0.851679
				0.866514
				0.838232
				0.853798
				0.825194
				0.841412
				0.812761
				0.829539
				0.801156
				0.818373
				0.790587
				0.808116
				0.78135
				0.798991
				0.773708
				0.791242
				0.767877
				0.785087
				0.764056
				0.780711
				0.762476
				0.778289
				0.763141
				0.777929
				0.766119
				0.77965
				0.771272
				0.783442
				0.77843
				0.789171
				0.787396
				0.796665
				0.797912
				0.805721
				0.809674
				0.816101
				0.82247
				0.827572
				0.836076
				0.839937
				0.850297
				0.853002
				0.864944
				0.86659
				0.879822
				0.880527
				0.894811
				0.894663
				0.909779
				0.908871
				0.92457
				0.923021
				0.939117
				0.936996
				0.953262
				0.950691
				0.966937
				0.963994
				0.980039
				0.976821
				0.99249
				0.989079
				1.0042
				1.00069
				1.0151
				1.01157
				1.02512
				1.02164
				1.03419
				1.03085
				1.04225
				1.03913
				1.04926
				1.04642
				1.05517
				1.05268
				1.05995
				1.05787
				1.06356
				1.06196
				1.06602
				1.06491
				1.06738
				1.06679
				1.06745
				1.0676
				1.06745
				1.06753
				1.06738
				1.0676
				1.06602
				1.06679
				1.06356
				1.06491
				1.05995
				1.06196
				1.05517
				1.05787
				1.04926
				1.05268
				1.04225
				1.04642
				1.03419
				1.03913
				1.02512
				1.03085
				1.0151
				1.02164
				1.0042
				1.01157
				0.992489
				1.00069
				0.980039
				0.989078
				0.966937
				0.97682
				0.953254
				0.963991
				0.939116
				0.950688
				0.924577
				0.936998
				0.909775
				0.923021
				0.894809
				0.908869
				0.87982
				0.894661
				0.864942
				0.880525
				0.850293
				0.866587
				0.836083
				0.853003
				0.822466
				0.839937
				0.809672
				0.82757
				0.79791
				0.816098
				0.787394
				0.805719
				0.778429
				0.796663
				0.77127
				0.789169
				0.766117
				0.78344
				0.763139
				0.779648
				0.762474
				0.777927
				0.764054
				0.778287
				0.767875
				0.780709
				0.773706
				0.785085
				0.781348
				0.79124
				0.790586
				0.798989
				0.801154
				0.808114
				0.81276
				0.818371
				0.825192
				0.829538
				0.838231
				0.841411
				0.851678
				0.853797
				0.865343
				0.866513
				0.879033
				0.87938
				0.892622
				0.89225
				0.905967
				0.904983
				0.91892
				0.917442
				0.931396
				0.929514
				0.943255
				0.941082
				0.954427
				0.952049
				0.964823
				0.962332
				0.974379
				0.971855
				0.98304
				0.980556
				0.990758
				0.988385
				0.997514
				0.995306
				1.00329
				1.0013
				1.0081
				1.00637
				1.01196
				1.01051
				1.01492
				1.01377
				1.01704
				1.01619
				1.01841
				1.01784
				1.01915
				1.01884
				1.01926
				1.01933
				1.01926
				1.0193
				1.01925
				1.01935
				1.01878
				1.01906
				1.01779
				1.01832
				1.01618
				1.01697
				1.01385
				1.01491
				1.01074
				1.01206
				1.00682
				1.00839
				1.00207
				1.00384
				0.996475
				0.998421
				0.990053
				0.992123
				0.982824
				0.984964
				0.974823
				0.976972
				0.9661
				0.968191
				0.956713
				0.958673
				0.946731
				0.948484
				0.936237
				0.937697
				0.925319
				0.9264
				0.914081
				0.91469
				0.902635
				0.902678
				0.891104
				0.890484
				0.879621
				0.878234
				0.868334
				0.866079
				0.857408
				0.854181
				0.847013
				0.842719
				0.837338
				0.831884
				0.82858
				0.821886
				0.820952
				0.812953
				0.814661
				0.80533
				0.809899
				0.799242
				0.806831
				0.794894
				0.805577
				0.792473
				0.806192
				0.792075
				0.80869
				0.793738
				0.813016
				0.797416
				0.819027
				0.803006
				0.826545
				0.810326
				0.83537
				0.819154
				0.845292
				0.829247
				0.856116
				0.840378
				0.867658
				0.852341
				0.879748
				0.864942
				0.892225
				0.878003
				0.904943
				0.891357
				0.917774
				0.904865
				0.930597
				0.918398
				0.943302
				0.931833
				0.955787
				0.94507
				0.967956
				0.957998
				0.979722
				0.97053
				0.991003
				0.98258
				1.00173
				0.99407
				1.01181
				1.00492
				1.02121
				1.01507
				1.02984
				1.02445
				1.03766
				1.03301
				1.04462
				1.04068
				1.05066
				1.04743
				1.05577
				1.05321
				1.05991
				1.05799
				1.06307
				1.06175
				1.06523
				1.06448
				1.06646
				1.06619
				1.06698
				1.0669
				1.06698
				1.0669
				1.06646
				1.0669
				1.06523
				1.06619
				1.06307
				1.06448
				1.05991
				1.06175
				1.05577
				1.05799
				1.05066
				1.05321
				1.04462
				1.04743
				1.03766
				1.04068
				1.02984
				1.03301
				1.02121
				1.02445
				1.01181
				1.01507
				1.00172
				1.00492
				0.991003
				0.994069
				0.979721
				0.98258
				0.967954
				0.970529
				0.955786
				0.957996
				0.943302
				0.94507
				0.930596
				0.931834
				0.917772
				0.918397
				0.904941
				0.904863
				0.892224
				0.891356
				0.879747
				0.878002
				0.867658
				0.864941
				0.856115
				0.852341
				0.84529
				0.840376
				0.835368
				0.829244
				0.826544
				0.819152
				0.819025
				0.810324
				0.813015
				0.803005
				0.808688
				0.797414
				0.80619
				0.793736
				0.805575
				0.792073
				0.806829
				0.792471
				0.809897
				0.794892
				0.81466
				0.79924
				0.82095
				0.805328
				0.828579
				0.812951
				0.837337
				0.821884
				0.847012
				0.831884
				0.857406
				0.842717
				0.868333
				0.854179
				0.87962
				0.866077
				0.891103
				0.878233
				0.902634
				0.890482
				0.91408
				0.902677
				0.925318
				0.914689
				0.936235
				0.926399
				0.94673
				0.937695
				0.956712
				0.948483
				0.966099
				0.958672
				0.974823
				0.968191
				0.982823
				0.976972
				0.990052
				0.984963
				0.996475
				0.992123
				1.00207
				0.99842
				1.00682
				1.00384
				1.01074
				1.00839
				1.01385
				1.01206
				1.01618
				1.01491
				1.01779
				1.01697
				1.01878
				1.01832
				1.01925
				1.01906
				1.01926
				1.01935
				1.0189
				1.01855
				1.01901
				1.01894
				1.01872
				1.01894
				1.01797
				1.01847
				1.01662
				1.01748
				1.01461
				1.0159
				1.01188
				1.01365
				1.00839
				1.0107
				1.00412
				1.00701
				0.999068
				1.00256
				0.993238
				0.997377
				0.98665
				0.991456
				0.979335
				0.984826
				0.971334
				0.977523
				0.962698
				0.969594
				0.95349
				0.961096
				0.943779
				0.952093
				0.933647
				0.94266
				0.923186
				0.932883
				0.912495
				0.922857
				0.901687
				0.912686
				0.890887
				0.902485
				0.880234
				0.892381
				0.869881
				0.882514
				0.859996
				0.873036
				0.850759
				0.86411
				0.842371
				0.855911
				0.835038
				0.848624
				0.828969
				0.842434
				0.824359
				0.837521
				0.821377
				0.834042
				0.820143
				0.832121
				0.820714
				0.831834
				0.823072
				0.833205
				0.827195
				0.836257
				0.832941
				0.840876
				0.840132
				0.846925
				0.848566
				0.854235
				0.858039
				0.862628
				0.868356
				0.871923
				0.879335
				0.881948
				0.890808
				0.892542
				0.902619
				0.903553
				0.91463
				0.914843
				0.926718
				0.926287
				0.938768
				0.937772
				0.95068
				0.949191
				0.962356
				0.960449
				0.973712
				0.971456
				0.984667
				0.982133
				0.99515
				0.992403
				1.00509
				1.0022
				1.01443
				1.01145
				1.02311
				1.02011
				1.03108
				1.02811
				1.03829
				1.03542
				1.0447
				1.04197
				1.05027
				1.04774
				1.05498
				1.0527
				1.0588
				1.0568
				1.06173
				1.06007
				1.06376
				1.06249
				1.0649
				1.06403
				1.06536
				1.06487
				1.06536
				1.0653
				1.0649
				1.06487
				1.06376
				1.06403
				1.06173
				1.06249
				1.0588
				1.06007
				1.05498
				1.0568
				1.05027
				1.0527
				1.0447
				1.04774
				1.03829
				1.04197
				1.03108
				1.03541
				1.02311
				1.02811
				1.01443
				1.02011
				1.00509
				1.01145
				0.995149
				1.0022
				0.984666
				0.992402
				0.973711
				0.982132
				0.962355
				0.971455
				0.950679
				0.960448
				0.938768
				0.94919
				0.926717
				0.937771
				0.914629
				0.926287
				0.902618
				0.914842
				0.890807
				0.903552
				0.879335
				0.892541
				0.868356
				0.881948
				0.858038
				0.871922
				0.848565
				0.862626
				0.84013
				0.854234
				0.83294
				0.846923
				0.827193
				0.840875
				0.823071
				0.836255
				0.820712
				0.833203
				0.820141
				0.831833
				0.821375
				0.83212
				0.824357
				0.83404
				0.828967
				0.837519
				0.835036
				0.842432
				0.842369
				0.848622
				0.850758
				0.85591
				0.859995
				0.864109
				0.86988
				0.873035
				0.880233
				0.882513
				0.890886
				0.89238
				0.901686
				0.902484
				0.912494
				0.912685
				0.923184
				0.922856
				0.933646
				0.932882
				0.943778
				0.942659
				0.953489
				0.952092
				0.962698
				0.961095
				0.971333
				0.969594
				0.979334
				0.977523
				0.986649
				0.984825
				0.993237
				0.991455
				0.999068
				0.997377
				1.00412
				1.00256
				1.00839
				1.007
				1.01188
				1.0107
				1.01461
				1.01365
				1.01662
				1.0159
				1.01797
				1.01748
				1.01872
				1.01847
				1.01901
				1.01894
				1.01889
				1.01894
				1.01762
				1.01777
				1.01833
				1.01817
				1.01831
				1.01834
				1.01785
				1.01806
				1.01687
				1.0173
				1.01533
				1.01597
				1.01317
				1.01402
				1.01037
				1.01141
				1.00691
				1.00812
				1.00279
				1.00413
				0.998009
				0.99946
				0.99259
				0.994106
				0.986558
				0.988096
				0.979948
				0.981459
				0.972807
				0.974238
				0.965187
				0.966481
				0.957149
				0.958247
				0.948763
				0.9496
				0.940109
				0.940619
				0.931274
				0.931386
				0.922355
				0.921996
				0.913461
				0.912556
				0.90471
				0.903181
				0.896231
				0.894002
				0.888165
				0.885162
				0.880663
				0.876816
				0.873883
				0.869132
				0.867988
				0.862288
				0.863134
				0.856462
				0.859469
				0.85183
				0.857111
				0.848545
				0.856147
				0.846728
				0.856614
				0.846454
				0.858563
				0.847736
				0.861933
				0.850557
				0.866629
				0.854869
				0.872516
				0.860535
				0.879447
				0.867391
				0.887263
				0.875263
				0.895809
				0.883978
				0.904936
				0.893369
				0.914504
				0.90328
				0.924384
				0.913564
				0.934455
				0.924093
				0.944609
				0.934746
				0.954747
				0.945415
				0.964778
				0.956003
				0.97462
				0.966421
				0.984198
				0.976589
				0.993441
				0.986432
				1.00229
				0.995885
				1.01068
				1.00488
				1.01856
				1.01338
				1.02589
				1.02131
				1.03263
				1.02864
				1.03872
				1.03532
				1.04415
				1.04132
				1.04888
				1.0466
				1.05289
				1.05115
				1.05615
				1.05494
				1.05869
				1.05796
				1.06049
				1.06022
				1.06154
				1.06166
				1.06227
				1.06239
				1.06227
				1.06276
				1.06154
				1.06239
				1.06049
				1.06166
				1.05869
				1.06022
				1.05615
				1.05796
				1.05289
				1.05494
				1.04888
				1.05115
				1.04415
				1.0466
				1.03872
				1.04132
				1.03263
				1.03532
				1.02589
				1.02864
				1.01856
				1.02131
				1.01068
				1.01338
				1.00229
				1.00488
				0.99344
				0.995884
				0.984197
				0.986432
				0.97462
				0.976588
				0.964777
				0.96642
				0.954746
				0.956002
				0.944608
				0.945414
				0.934454
				0.934745
				0.924383
				0.924092
				0.914503
				0.913563
				0.904935
				0.903279
				0.895808
				0.893369
				0.887262
				0.883977
				0.879445
				0.875262
				0.872515
				0.86739
				0.866627
				0.860534
				0.861932
				0.854868
				0.858561
				0.850555
				0.856613
				0.847735
				0.856146
				0.846453
				0.85711
				0.846726
				0.859467
				0.848543
				0.863133
				0.851828
				0.867986
				0.856461
				0.873882
				0.862286
				0.880662
				0.869131
				0.888164
				0.876815
				0.89623
				0.885161
				0.904708
				0.894001
				0.91346
				0.90318
				0.922354
				0.912555
				0.931273
				0.921995
				0.940108
				0.931385
				0.948762
				0.940618
				0.957148
				0.9496
				0.965186
				0.958246
				0.972807
				0.96648
				0.979948
				0.974237
				0.986557
				0.981459
				0.992589
				0.988095
				0.998009
				0.994106
				1.00279
				0.99946
				1.00691
				1.00413
				1.01037
				1.00812
				1.01317
				1.01141
				1.01533
				1.01402
				1.01687
				1.01597
				1.01785
				1.0173
				1.01831
				1.01806
				1.01833
				1.01834
				1.01762
				1.01817
				1.01638
				1.01585
				1.01712
				1.01653
				1.01731
				1.01736
				1.01706
				1.01736
				1.0163
				1.01691
				1.01501
				1.01595
				1.01314
				1.01447
				1.01067
				1.01241
				1.0076
				1.00978
				1.00391
				1.00656
				0.999623
				1.00276
				0.994751
				0.998394
				0.989318
				0.993476
				0.983356
				0.988036
				0.976905
				0.982111
				0.970011
				0.975743
				0.962728
				0.968981
				0.95512
				0.961883
				0.947255
				0.954515
				0.939213
				0.946949
				0.931082
				0.939265
				0.92296
				0.931556
				0.914955
				0.923919
				0.907189
				0.916465
				0.899791
				0.909312
				0.892902
				0.902587
				0.88667
				0.896425
				0.881247
				0.890962
				0.876783
				0.886336
				0.873413
				0.882675
				0.871251
				0.88009
				0.870377
				0.878668
				0.870827
				0.87846
				0.872581
				0.8795
				0.87566
				0.881817
				0.879968
				0.885323
				0.885383
				0.889924
				0.891765
				0.895504
				0.898968
				0.901931
				0.906845
				0.909073
				0.915255
				0.916796
				0.924066
				0.924975
				0.933154
				0.933486
				0.942409
				0.942222
				0.951728
				0.951079
				0.961019
				0.959963
				0.970198
				0.968791
				0.979192
				0.977485
				0.98793
				0.985974
				0.996351
				0.994197
				1.0044
				1.00209
				1.01203
				1.00961
				1.01919
				1.01671
				1.02584
				1.02334
				1.03195
				1.02947
				1.03748
				1.03506
				1.04241
				1.04008
				1.04671
				1.04451
				1.05037
				1.04833
				1.05338
				1.05153
				1.05572
				1.05408
				1.05738
				1.05598
				1.05833
				1.05722
				1.05895
				1.05815
				1.05895
				1.05847
				1.05833
				1.05815
				1.05738
				1.05722
				1.05572
				1.05598
				1.05338
				1.05408
				1.05037
				1.05153
				1.04671
				1.04833
				1.04241
				1.04451
				1.03748
				1.04008
				1.03195
				1.03506
				1.02584
				1.02947
				1.01919
				1.02334
				1.01203
				1.01671
				1.0044
				1.00961
				0.996351
				1.00209
				0.987929
				0.994196
				0.979191
				0.985974
				0.970198
				0.977484
				0.961018
				0.96879
				0.951727
				0.959962
				0.942408
				0.951078
				0.933153
				0.942221
				0.924065
				0.933486
				0.915254
				0.924974
				0.906844
				0.916796
				0.898967
				0.909072
				0.891764
				0.90193
				0.885381
				0.895502
				0.879967
				0.889923
				0.875659
				0.885322
				0.87258
				0.881816
				0.870826
				0.879499
				0.870376
				0.878459
				0.87125
				0.878667
				0.873412
				0.880089
				0.876781
				0.882674
				0.881246
				0.886335
				0.886668
				0.890961
				0.8929
				0.896424
				0.89979
				0.902586
				0.907188
				0.909311
				0.914954
				0.916464
				0.922959
				0.923919
				0.931081
				0.931555
				0.939212
				0.939265
				0.947254
				0.946948
				0.955119
				0.954514
				0.962728
				0.961883
				0.97001
				0.96898
				0.976904
				0.975742
				0.983356
				0.98211
				0.989318
				0.988036
				0.994751
				0.993475
				0.999623
				0.998394
				1.00391
				1.00276
				1.0076
				1.00656
				1.01067
				1.00978
				1.01314
				1.01241
				1.01501
				1.01447
				1.0163
				1.01595
				1.01706
				1.01691
				1.01731
				1.01736
				1.01712
				1.01736
				1.01638
				1.01653
				1.01404
				1.01416
				1.01527
				1.01486
				1.01609
				1.01578
				1.01611
				1.01599
				1.01568
				1.01576
				1.01476
				1.01503
				1.01334
				1.01379
				1.01141
				1.01202
				1.00896
				1.00971
				1.00599
				1.00687
				1.00252
				1.00349
				0.998568
				0.999597
				0.994146
				0.995207
				0.989289
				0.990346
				0.98403
				0.985044
				0.97841
				0.979341
				0.972475
				0.973281
				0.96628
				0.966914
				0.959883
				0.960298
				0.953352
				0.953499
				0.946762
				0.946589
				0.940196
				0.93965
				0.933744
				0.932772
				0.927505
				0.926054
				0.921585
				0.919605
				0.916096
				0.913541
				0.911152
				0.907986
				0.906871
				0.903064
				0.903361
				0.898902
				0.900723
				0.895615
				0.899037
				0.893305
				0.89836
				0.89205
				0.89872
				0.891898
				0.900184
				0.892849
				0.902685
				0.894911
				0.906168
				0.898061
				0.910544
				0.902213
				0.915711
				0.90726
				0.921559
				0.913083
				0.927974
				0.919559
				0.934844
				0.926566
				0.942061
				0.933987
				0.949524
				0.941709
				0.957139
				0.94963
				0.964821
				0.957655
				0.972489
				0.965699
				0.980072
				0.973683
				0.987506
				0.981538
				0.994732
				0.9892
				1.0017
				0.996612
				1.00836
				1.00372
				1.01467
				1.01049
				1.02059
				1.01687
				1.02609
				1.02283
				1.03115
				1.02834
				1.03573
				1.03336
				1.03981
				1.03788
				1.04338
				1.04188
				1.04641
				1.04534
				1.04891
				1.04824
				1.05082
				1.05056
				1.05216
				1.05229
				1.05318
				1.05339
				1.05375
				1.0542
				1.05375
				1.05449
				1.05318
				1.0542
				1.05216
				1.05339
				1.05082
				1.05229
				1.04891
				1.05056
				1.04641
				1.04824
				1.04338
				1.04534
				1.03981
				1.04188
				1.03573
				1.03788
				1.03115
				1.03336
				1.02609
				1.02834
				1.02059
				1.02283
				1.01467
				1.01687
				1.00836
				1.01049
				1.0017
				1.00372
				0.994731
				0.996612
				0.987505
				0.989199
				0.980071
				0.981537
				0.972488
				0.973683
				0.96482
				0.965698
				0.957139
				0.957655
				0.949523
				0.949629
				0.94206
				0.941708
				0.934843
				0.933986
				0.927973
				0.926565
				0.921558
				0.919558
				0.91571
				0.913082
				0.910543
				0.907259
				0.906167
				0.902212
				0.902684
				0.89806
				0.900183
				0.89491
				0.898719
				0.892848
				0.898359
				0.891897
				0.899036
				0.892049
				0.900722
				0.893304
				0.90336
				0.895614
				0.90687
				0.898901
				0.911152
				0.903063
				0.916095
				0.907985
				0.921584
				0.91354
				0.927504
				0.919604
				0.933743
				0.926053
				0.940195
				0.932771
				0.946762
				0.939649
				0.953351
				0.946588
				0.959882
				0.953498
				0.966279
				0.960298
				0.972475
				0.966914
				0.978409
				0.97328
				0.984029
				0.979341
				0.989289
				0.985044
				0.994146
				0.990345
				0.998567
				0.995207
				1.00252
				0.999597
				1.00599
				1.00349
				1.00896
				1.00687
				1.01141
				1.00971
				1.01334
				1.01202
				1.01476
				1.01379
				1.01568
				1.01503
				1.01611
				1.01576
				1.01609
				1.01599
				1.01527
				1.01578
				1.01404
				1.01486
				1.01195
				1.01136
				1.01322
				1.01232
				1.01417
				1.01383
				1.01443
				1.01458
				1.01422
				1.01463
				1.01354
				1.01422
				1.01237
				1.01335
				1.01072
				1.01202
				1.00859
				1.01022
				1.00599
				1.00796
				1.00293
				1.00526
				0.999429
				1.00212
				0.995515
				0.998576
				0.99121
				0.994642
				0.986545
				0.990348
				0.981559
				0.985729
				0.976291
				0.980822
				0.970789
				0.975672
				0.965107
				0.970327
				0.959305
				0.964842
				0.953451
				0.95928
				0.947617
				0.953708
				0.941885
				0.9482
				0.936346
				0.942837
				0.931093
				0.937708
				0.926228
				0.932904
				0.921853
				0.92852
				0.918073
				0.924653
				0.914986
				0.921396
				0.912678
				0.918834
				0.911222
				0.917041
				0.910668
				0.916072
				0.911039
				0.915963
				0.912311
				0.916755
				0.914524
				0.918454
				0.917615
				0.921006
				0.921508
				0.92435
				0.926115
				0.928412
				0.931335
				0.933105
				0.937067
				0.938334
				0.943211
				0.944005
				0.949667
				0.950025
				0.956344
				0.956303
				0.963157
				0.962756
				0.970025
				0.969305
				0.976878
				0.975877
				0.983651
				0.982407
				0.990286
				0.988835
				0.99673
				0.995109
				1.00294
				1.00118
				1.00887
				1.007
				1.01448
				1.01255
				1.01975
				1.01777
				1.02465
				1.02265
				1.02915
				1.02716
				1.03323
				1.03127
				1.03688
				1.03497
				1.04007
				1.03825
				1.04279
				1.04107
				1.04504
				1.04343
				1.04677
				1.04532
				1.04797
				1.04668
				1.04885
				1.04772
				1.04934
				1.04845
				1.04934
				1.04869
				1.04885
				1.04845
				1.04797
				1.04772
				1.04677
				1.04668
				1.04504
				1.04532
				1.04279
				1.04343
				1.04007
				1.04107
				1.03688
				1.03825
				1.03323
				1.03497
				1.02915
				1.03127
				1.02465
				1.02716
				1.01975
				1.02265
				1.01448
				1.01777
				1.00887
				1.01255
				1.00294
				1.007
				0.99673
				1.00118
				0.990285
				0.995108
				0.983651
				0.988835
				0.976878
				0.982406
				0.970024
				0.975876
				0.963156
				0.969304
				0.956344
				0.962755
				0.949666
				0.956302
				0.94321
				0.950024
				0.937067
				0.944004
				0.931334
				0.938333
				0.926114
				0.933104
				0.921507
				0.928412
				0.917614
				0.92435
				0.914523
				0.921005
				0.91231
				0.918453
				0.911038
				0.916754
				0.910667
				0.915962
				0.911221
				0.916071
				0.912677
				0.91704
				0.914985
				0.918833
				0.918072
				0.921395
				0.921852
				0.924652
				0.926227
				0.92852
				0.931092
				0.932903
				0.936345
				0.937707
				0.941885
				0.942837
				0.947616
				0.948199
				0.95345
				0.953707
				0.959305
				0.959279
				0.965107
				0.964842
				0.970788
				0.970326
				0.97629
				0.975671
				0.981558
				0.980821
				0.986545
				0.985728
				0.991209
				0.990348
				0.995514
				0.994641
				0.999429
				0.998576
				1.00293
				1.00212
				1.00599
				1.00526
				1.00859
				1.00796
				1.01072
				1.01022
				1.01237
				1.01202
				1.01354
				1.01335
				1.01422
				1.01422
				1.01443
				1.01463
				1.01417
				1.01458
				1.01322
				1.01383
				1.01195
				1.01232
				1.00897
				1.00894
				1.01067
				1.00994
				1.01228
				1.01148
				1.01292
				1.01242
				1.01299
				1.01272
				1.01262
				1.01255
				1.01181
				1.01191
				1.01057
				1.01083
				1.00891
				1.00931
				1.00686
				1.00737
				1.00442
				1.00502
				1.00162
				1.00228
				0.998469
				0.99917
				0.995003
				0.995717
				0.991247
				0.991944
				0.987233
				0.987884
				0.982996
				0.983571
				0.978578
				0.979044
				0.974022
				0.974347
				0.96938
				0.969528
				0.964706
				0.964643
				0.960062
				0.959752
				0.955513
				0.954921
				0.951131
				0.950223
				0.94699
				0.945736
				0.94317
				0.94154
				0.939748
				0.93772
				0.936803
				0.934361
				0.934406
				0.931544
				0.932622
				0.929343
				0.931503
				0.927821
				0.931085
				0.927026
				0.931388
				0.926989
				0.932474
				0.927696
				0.934278
				0.929177
				0.936769
				0.931409
				0.939894
				0.934342
				0.943586
				0.937911
				0.947772
				0.94204
				0.952374
				0.946647
				0.957315
				0.951648
				0.962516
				0.956961
				0.967904
				0.962505
				0.97341
				0.968205
				0.978967
				0.973989
				0.984517
				0.979793
				0.990006
				0.985558
				0.995386
				0.991232
				1.00061
				0.996766
				1.00565
				1.00212
				1.01046
				1.00725
				1.01501
				1.01213
				1.01928
				1.01674
				1.02325
				1.02103
				1.02689
				1.02501
				1.03019
				1.02863
				1.03314
				1.0319
				1.03572
				1.0348
				1.03791
				1.0373
				1.03969
				1.03941
				1.04107
				1.04109
				1.04207
				1.04233
				1.04289
				1.04323
				1.04329
				1.04385
				1.04329
				1.04406
				1.04289
				1.04385
				1.04207
				1.04323
				1.04107
				1.04233
				1.03969
				1.04109
				1.03791
				1.03941
				1.03572
				1.0373
				1.03314
				1.0348
				1.03019
				1.0319
				1.02689
				1.02863
				1.02325
				1.02501
				1.01928
				1.02103
				1.01501
				1.01674
				1.01046
				1.01213
				1.00565
				1.00725
				1.00061
				1.00212
				0.995386
				0.996765
				0.990006
				0.991231
				0.984517
				0.985558
				0.978966
				0.979793
				0.973409
				0.973988
				0.967904
				0.968204
				0.962516
				0.962505
				0.957314
				0.956961
				0.952374
				0.951648
				0.947771
				0.946646
				0.943585
				0.942039
				0.939893
				0.93791
				0.936768
				0.934342
				0.934277
				0.931409
				0.932473
				0.929176
				0.931387
				0.927696
				0.931084
				0.926988
				0.931502
				0.927025
				0.932621
				0.92782
				0.934405
				0.929342
				0.936802
				0.931543
				0.939747
				0.934361
				0.943169
				0.93772
				0.946989
				0.941539
				0.95113
				0.945735
				0.955512
				0.950223
				0.960061
				0.95492
				0.964705
				0.959751
				0.969379
				0.964642
				0.974022
				0.969527
				0.978577
				0.974346
				0.982996
				0.979044
				0.987233
				0.983571
				0.991247
				0.987884
				0.995003
				0.991944
				0.998469
				0.995716
				1.00162
				0.99917
				1.00442
				1.00228
				1.00686
				1.00502
				1.00891
				1.00737
				1.01057
				1.00931
				1.01181
				1.01083
				1.01262
				1.01191
				1.01299
				1.01254
				1.01292
				1.01272
				1.01228
				1.01242
				1.01067
				1.01148
				1.00897
				1.00994
				1.00636
				1.00582
				1.0081
				1.00704
				1.00974
				1.00911
				1.01063
				1.01066
				1.01096
				1.01121
				1.01082
				1.0113
				1.01024
				1.01095
				1.00926
				1.0102
				1.00788
				1.00907
				1.00613
				1.00756
				1.00403
				1.00571
				1.0016
				1.00354
				0.998866
				1.00106
				0.995851
				0.998293
				0.992581
				0.995272
				0.989085
				0.992021
				0.985396
				0.98857
				0.98155
				0.984953
				0.977588
				0.981207
				0.973553
				0.977371
				0.969494
				0.973492
				0.965467
				0.969619
				0.961528
				0.965805
				0.957741
				0.962107
				0.954171
				0.958587
				0.950886
				0.955307
				0.947954
				0.952332
				0.945443
				0.949725
				0.943414
				0.947547
				0.941921
				0.945853
				0.941009
				0.944688
				0.940708
				0.944088
				0.941032
				0.944075
				0.941957
				0.944691
				0.943518
				0.945916
				0.945676
				0.947724
				0.948387
				0.950078
				0.951595
				0.95293
				0.955236
				0.956224
				0.959243
				0.959899
				0.963549
				0.963892
				0.968085
				0.968137
				0.972786
				0.972572
				0.977591
				0.977137
				0.982442
				0.981773
				0.987287
				0.98643
				0.992078
				0.991059
				0.996772
				0.995615
				1.00133
				1.00006
				1.00572
				1.00436
				1.00992
				1.00848
				1.01389
				1.0124
				1.01761
				1.0161
				1.02107
				1.01955
				1.02425
				1.02273
				1.02714
				1.02563
				1.02971
				1.02825
				1.03197
				1.03055
				1.03391
				1.03254
				1.03549
				1.03421
				1.03673
				1.03553
				1.03762
				1.0365
				1.03829
				1.03734
				1.03863
				1.03783
				1.03863
				1.038
				1.03829
				1.03783
				1.03762
				1.03734
				1.03673
				1.0365
				1.03549
				1.03553
				1.03391
				1.03421
				1.03197
				1.03254
				1.02971
				1.03055
				1.02714
				1.02825
				1.02425
				1.02563
				1.02107
				1.02273
				1.01761
				1.01955
				1.01389
				1.0161
				1.00992
				1.0124
				1.00572
				1.00848
				1.00133
				1.00436
				0.996772
				1.00006
				0.992078
				0.995615
				0.987287
				0.991058
				0.982442
				0.98643
				0.977591
				0.981773
				0.972786
				0.977136
				0.968085
				0.972572
				0.963548
				0.968136
				0.959243
				0.963891
				0.955235
				0.959898
				0.951594
				0.956223
				0.948387
				0.952929
				0.945675
				0.950077
				0.943517
				0.947723
				0.941956
				0.945916
				0.941031
				0.94469
				0.940707
				0.944074
				0.941008
				0.944087
				0.941921
				0.944687
				0.943413
				0.945852
				0.945442
				0.947547
				0.947954
				0.949724
				0.950885
				0.952331
				0.95417
				0.955306
				0.95774
				0.958586
				0.961528
				0.962106
				0.965466
				0.965804
				0.969494
				0.969619
				0.973552
				0.973492
				0.977587
				0.977371
				0.98155
				0.981206
				0.985396
				0.984953
				0.989085
				0.98857
				0.99258
				0.992021
				0.99585
				0.995271
				0.998866
				0.998292
				1.0016
				1.00106
				1.00403
				1.00354
				1.00613
				1.00571
				1.00788
				1.00756
				1.00926
				1.00907
				1.01024
				1.0102
				1.01082
				1.01095
				1.01096
				1.0113
				1.01063
				1.01121
				1.00974
				1.01066
				1.0081
				1.00911
				1.00636
				1.00704
				1.00337
				1.00312
				1.00553
				1.00437
				1.00777
				1.00649
				1.00907
				1.00817
				1.00957
				1.00896
				1.00964
				1.00927
				1.00932
				1.00915
				1.00863
				1.00862
				1.00759
				1.00772
				1.00624
				1.00648
				1.00459
				1.00492
				1.00266
				1.00306
				1.00049
				1.00094
				0.998089
				0.998557
				0.995484
				0.995953
				0.992701
				0.993148
				0.989768
				0.990171
				0.986716
				0.987052
				0.983578
				0.983824
				0.98039
				0.980522
				0.977192
				0.977187
				0.974028
				0.973863
				0.970942
				0.970594
				0.967984
				0.967433
				0.965206
				0.964431
				0.962658
				0.961643
				0.960393
				0.959124
				0.958459
				0.956928
				0.956904
				0.955106
				0.955765
				0.953705
				0.955077
				0.952761
				0.954861
				0.952305
				0.955131
				0.952354
				0.955932
				0.952889
				0.957212
				0.953947
				0.958951
				0.955502