<VTKFile type="UnstructuredGrid" version="0.1" byte_order="LittleEndian">
<UnstructuredGrid>
	<Piece NumberOfPoints="1088" NumberOfCells="2048">
		<CellData Scalars="density" Vectors="velocity">
			<DataArray type="Float64" Name="density" Format="ascii">
				1.05081
				1.05261
				1.04526
				1.04948
				1.03571
				1.04349
				1.02113
				1.03348
				1.00126
				1.01851
				0.976467
				0.998628
				0.947478
				0.974407
				0.915122
				0.946586
				0.880229
				0.915943
				0.843639
				0.883231
				0.806224
				0.849246
				0.768903
				0.814866
				0.73285
				0.781056
				0.699273
				0.749
				0.67094
				0.721031
				0.6485
				0.698071
				0.649607
				0.689589
				0.669289
				0.700999
				0.698614
				0.72372
				0.732914
				0.752363
				0.769858
				0.784102
				0.807892
				0.817366
				0.84588
				0.851005
				0.882924
				0.884142
				0.918246
				0.916064
				0.951203
				0.946136
				0.981239
				0.973824
				1.00791
				0.998646
				1.03093
				1.02014
				1.05019
				1.03774
				1.06496
				1.05048
				1.06937
				1.05742
				1.06137
				1.05942
				1.06111
				1.05862
				1.06401
				1.06097
				1.06045
				1.05584
				1.04756
				1.04802
				1.02989
				1.03596
				1.00907
				1.02001
				0.985781
				1.00112
				0.960713
				0.98011
				0.934654
				0.957745
				0.908555
				0.934838
				0.883518
				0.912304
				0.860826
				0.891201
				0.841909
				0.872739
				0.828244
				0.858211
				0.821153
				0.848929
				0.821388
				0.84586
				0.828929
				0.849436
				0.842938
				0.859287
				0.862115
				0.874486
				0.884973
				0.893723
				0.910103
				0.915679
				0.936186
				0.939064
				0.961998
				0.962702
				0.986348
				0.985473
				1.00804
				1.00625
				1.02596
				1.02393
				1.03928
				1.03751
				1.0478
				1.04651
				1.05215
				1.05133
				1.05348
				1.05343
				1.05303
				1.05402
				1.04895
				1.04913
				1.04547
				1.04796
				1.03875
				1.04152
				1.02859
				1.03138
				1.0152
				1.01831
				0.99884
				1.00246
				0.979798
				0.983836
				0.958393
				0.962583
				0.935018
				0.938985
				0.910148
				0.913449
				0.884362
				0.886488
				0.858391
				0.858747
				0.83321
				0.831017
				0.81004
				0.804278
				0.790965
				0.78054
				0.778787
				0.760602
				0.779027
				0.751871
				0.790851
				0.758815
				0.809985
				0.776859
				0.833191
				0.800941
				0.8585
				0.828141
				0.88462
				0.856746
				0.910639
				0.885615
				0.935868
				0.913919
				0.959763
				0.941014
				0.981881
				0.966386
				1.00185
				0.989612
				1.01933
				1.01036
				1.03396
				1.02842
				1.04534
				1.04359
				1.05332
				1.05523
				1.05883
				1.06056
				1.0617
				1.05468
				1.06261
				1.06301
				1.05814
				1.0553
				1.05231
				1.05799
				1.04444
				1.05314
				1.03387
				1.0427
				1.02083
				1.029
				1.00583
				1.01308
				0.98944
				0.995517
				0.972255
				0.976842
				0.954954
				0.957702
				0.938319
				0.938872
				0.923245
				0.921266
				0.910723
				0.905928
				0.901754
				0.89398
				0.897195
				0.886482
				0.897526
				0.884198
				0.902711
				0.887339
				0.912202
				0.895503
				0.925106
				0.907807
				0.940388
				0.923128
				0.957037
				0.940329
				0.974133
				0.95836
				0.990875
				0.976309
				1.00657
				0.993407
				1.02064
				1.00905
				1.03252
				1.02282
				1.0417
				1.03441
				1.04768
				1.04352
				1.05041
				1.04963
				1.05078
				1.05217
				1.05135
				1.0498
				1.04474
				1.0465
				1.04109
				1.04564
				1.03521
				1.04179
				1.02649
				1.03478
				1.01492
				1.02503
				1.00069
				1.01286
				0.984021
				0.998469
				0.965226
				0.982036
				0.944686
				0.963835
				0.922878
				0.944243
				0.900376
				0.923748
				0.87788
				0.902974
				0.8563
				0.882692
				0.836814
				0.863961
				0.821069
				0.848228
				0.811878
				0.837038
				0.812
				0.83249
				0.821236
				0.836303
				0.837119
				0.847191
				0.857035
				0.862872
				0.879114
				0.881373
				0.902096
				0.9013
				0.925089
				0.921669
				0.947422
				0.941757
				0.968574
				0.961017
				0.988133
				0.979022
				1.00575
				0.995432
				1.02112
				1.00998
				1.03391
				1.02249
				1.04375
				1.03298
				1.05062
				1.04173
				1.05614
				1.04843
				1.06526
				1.0507
				1.06447
				1.0494
				1.05685
				1.05013
				1.05048
				1.04818
				1.04335
				1.04196
				1.03413
				1.03381
				1.02275
				1.02428
				1.00962
				1.01341
				0.995232
				1.00135
				0.980128
				0.988464
				0.964912
				0.975215
				0.950282
				0.962182
				0.937032
				0.950034
				0.926023
				0.939514
				0.918107
				0.931394
				0.913996
				0.926379
				0.914092
				0.92496
				0.918367
				0.927319
				0.926379
				0.933233
				0.937391
				0.942177
				0.950526
				0.953424
				0.964903
				0.966185
				0.979698
				0.979683
				0.994178
				0.993216
				1.00771
				1.00619
				1.01978
				1.01811
				1.02994
				1.02864
				1.03788
				1.03742
				1.04334
				1.04397
				1.04624
				1.0476
				1.04644
				1.04815
				1.04651
				1.04796
				1.03666
				1.03531
				1.03417
				1.03652
				1.02957
				1.03253
				1.02323
				1.02649
				1.01538
				1.01881
				1.00612
				1.00951
				0.995524
				0.998671
				0.983748
				0.986451
				0.970985
				0.973053
				0.957507
				0.958724
				0.943682
				0.943786
				0.93001
				0.928678
				0.917159
				0.913995
				0.905976
				0.900563
				0.897538
				0.889544
				0.892916
				0.882197
				0.892958
				0.879716
				0.897591
				0.882521
				0.90606
				0.890125
				0.917333
				0.90148
				0.930374
				0.915362
				0.9443
				0.930657
				0.958419
				0.946481
				0.972211
				0.962167
				0.985281
				0.977218
				0.997336
				0.991255
				1.00816
				1.00399
				1.01761
				1.01518
				1.0256
				1.02466
				1.03208
				1.03237
				1.03702
				1.03851
				1.04052
				1.04332
				1.04241
				1.04645
				1.04249
				1.04868
				1.04085
				1.04719
				1.03764
				1.04389
				1.03314
				1.03919
				1.0274
				1.03347
				1.02055
				1.02662
				1.01276
				1.01857
				1.00425
				1.00948
				0.995304
				0.999648
				0.986287
				0.989483
				0.977637
				0.979442
				0.969843
				0.970055
				0.963421
				0.96189
				0.958855
				0.955519
				0.956525
				0.951437
				0.956632
				0.949985
				0.959155
				0.951262
				0.963854
				0.955121
				0.970322
				0.961189
				0.978061
				0.968952
				0.98656
				0.977847
				0.995344
				0.987328
				1.004
				0.996911
				1.01218
				1.00618
				1.01964
				1.01478
				1.02617
				1.02242
				1.03163
				1.0289
				1.03574
				1.0341
				1.03783
				1.03782
				1.03752
				1.03897
				1.03862
				1.0353
				1.03031
				1.03021
				1.02855
				1.02963
				1.0249
				1.02708
				1.01962
				1.02286
				1.01296
				1.01745
				1.00507
				1.01093
				0.996077
				1.00334
				0.986073
				0.994776
				0.975224
				0.985385
				0.96378
				0.97537
				0.952094
				0.965008
				0.940643
				0.954664
				0.930033
				0.944803
				0.920994
				0.936
				0.914338
				0.928903
				0.910857
				0.924142
				0.911088
				0.922249
				0.915017
				0.923553
				0.922076
				0.927889
				0.931461
				0.934705
				0.942359
				0.943298
				0.954057
				0.952987
				0.965971
				0.963184
				0.977645
				0.973416
				0.98873
				0.983315
				0.99897
				0.992611
				1.00818
				1.00111
				1.01626
				1.00867
				1.02313
				1.01519
				1.02876
				1.02061
				1.03305
				1.02494
				1.03592
				1.02818
				1.03765
				1.03005
				1.03782
				1.03069
				1.03643
				1.03049
				1.03395
				1.02912
				1.03022
				1.02649
				1.02539
				1.02293
				1.01963
				1.01851
				1.01309
				1.01331
				1.00595
				1.0075
				0.998433
				1.00128
				0.990854
				0.994879
				0.983568
				0.988605
				0.976983
				0.982792
				0.971522
				0.977806
				0.967587
				0.974005
				0.965498
				0.971698
				0.965437
				0.971089
				0.96739
				0.972244
				0.971177
				0.975061
				0.976471
				0.979309
				0.982862
				0.984666
				0.989913
				0.990764
				0.997211
				0.997236
				1.0044
				1.00374
				1.01119
				1.01
				1.01738
				1.01577
				1.02279
				1.02088
				1.02722
				1.02524
				1.03042
				1.02882
				1.03204
				1.03133
				1.03043
				1.03132
				1.02951
				1.03102
				1.01967
				1.01883
				1.01837
				1.02057
				1.01582
				1.01815
				1.01252
				1.01485
				1.00851
				1.01079
				1.00384
				1.006
				0.998589
				1.00051
				0.992843
				0.994367
				0.986714
				0.987703
				0.980353
				0.98068
				0.973962
				0.973512
				0.967805
				0.966474
				0.962209
				0.959905
				0.957541
				0.954209
				0.954183
				0.949827
				0.952452
				0.947157
				0.952535
				0.946467
				0.95441
				0.947817
				0.957898
				0.951085
				0.962698
				0.955989
				0.968441
				0.962134
				0.97475
				0.969088
				0.981291
				0.976446
				0.987782
				0.983859
				0.994004
				0.991049
				0.999793
				0.997808
				1.00503
				1.00398
				1.00964
				1.00947
				1.01357
				1.0142
				1.0168
				1.01813
				1.0193
				1.02124
				1.02107
				1.02356
				1.02215
				1.02502
				1.02246
				1.02562
				1.02199
				1.02562
				1.02086
				1.02477
				1.01909
				1.02309
				1.01671
				1.02072
				1.01379
				1.0177
				1.01042
				1.01409
				1.0067
				1.01002
				1.00277
				1.00561
				0.998811
				1.00105
				0.995015
				0.996535
				0.991602
				0.99231
				0.988795
				0.988623
				0.986792
				0.985719
				0.98574
				0.983801
				0.985719
				0.983005
				0.986728
				0.983383
				0.988678
				0.984899
				0.99141
				0.987416
				0.994724
				0.990735
				0.998403
				0.994622
				1.00224
				0.998834
				1.00605
				1.00314
				1.00967
				1.00734
				1.01296
				1.01124
				1.01582
				1.01472
				1.01818
				1.0177
				1.02002
				1.02015
				1.02112
				1.02198
				1.02021
				1.02255
				1.02042
				1.01778
				1.01541
				1.01457
				1.01447
				1.01434
				1.01245
				1.01304
				1.00976
				1.0109
				1.00646
				1.0082
				1.00262
				1.00505
				0.998304
				1.00149
				0.993583
				0.997544
				0.988547
				0.993269
				0.983322
				0.988756
				0.978084
				0.984141
				0.973061
				0.979606
				0.968526
				0.975362
				0.964781
				0.971653
				0.962117
				0.968726
				0.960774
				0.966801
				0.96089
				0.96604
				0.962475
				0.966523
				0.965373
				0.968212
				0.969325
				0.97095
				0.974033
				0.974509
				0.979199
				0.978633
				0.984554
				0.983073
				0.989873
				0.987609
				0.99498
				0.99206
				0.999739
				0.996287
				1.00406
				1.00019
				1.00787
				1.00369
				1.01114
				1.00674
				1.01385
				1.00931
				1.01597
				1.01139
				1.01748
				1.01298
				1.0184
				1.01405
				1.01872
				1.01462
				1.01845
				1.01475
				1.01763
				1.01442
				1.01627
				1.01361
				1.01442
				1.01236
				1.01213
				1.01071
				1.00947
				1.00871
				1.00652
				1.00643
				1.00339
				1.00395
				1.00022
				1.00139
				0.997171
				0.998867
				0.99441
				0.996531
				0.992121
				0.994533
				0.990468
				0.99302
				0.989581
				0.992113
				0.989535
				0.991893
				0.990317
				0.992376
				0.991856
				0.99352
				0.994025
				0.995237
				0.996657
				0.9974
				0.999576
				0.999864
				1.00261
				1.00248
				1.0056
				1.00511
				1.00843
				1.00762
				1.01099
				1.00994
				1.0132
				1.012
				1.01498
				1.01372
				1.01627
				1.01506
				1.01709
				1.01596
				1.01555
				1.0156
				1.01355
				1.01479
				1.00821
				1.0076
				1.00768
				1.00908
				1.00638
				1.00762
				1.00477
				1.00601
				1.0029
				1.00405
				1.00079
				1.00181
				0.998459
				0.999299
				0.995927
				0.996541
				0.993257
				0.993591
				0.990526
				0.990526
				0.987831
				0.987453
				0.985289
				0.984502
				0.98303
				0.981821
				0.981192
				0.979569
				0.979904
				0.977898
				0.979269
				0.976935
				0.979339
				0.976758
				0.980102
				0.977374
				0.981502
				0.978733
				0.98344
				0.980746
				0.98579
				0.98328
				0.988411
				0.986178
				0.991168
				0.989282
				0.993942
				0.99245
				0.996634
				0.995559
				0.999169
				0.998512
				1.00149
				1.00124
				1.00356
				1.00369
				1.00537
				1.00583
				1.00689
				1.00765
				1.00812
				1.00912
				1.00904
				1.01026
				1.00969
				1.01108
				1.01004
				1.01158
				1.0101
				1.0118
				1.00987
				1.01171
				1.00938
				1.0113
				1.00863
				1.01058
				1.00766
				1.00957
				1.00649
				1.00831
				1.00516
				1.00684
				1.00373
				1.00521
				1.00227
				1.0035
				1.00085
				1.00178
				0.999568
				1.00016
				0.998504
				0.998725
				0.997732
				0.997576
				0.997308
				0.996788
				0.997261
				0.996412
				0.9976
				0.996474
				0.998293
				0.996971
				0.999283
				0.997859
				1.0005
				0.999065
				1.00184
				1.0005
				1.00325
				1.00207
				1.00463
				1.00367
				1.00592
				1.00523
				1.00706
				1.00666
				1.00803
				1.00791
				1.0088
				1.00896
				1.00934
				1.00977
				1.00965
				1.01031
				1.00887
				1.01082
				1.00832
				1.00681
				1.00634
				1.00569
				1.00587
				1.00564
				1.00479
				1.00501
				1.00349
				1.00393
				1.00198
				1.0027
				1.00027
				1.0013
				0.998383
				0.999738
				0.996348
				0.998034
				0.994209
				0.99622
				0.992022
				0.994338
				0.989864
				0.992442
				0.987825
				0.990605
				0.98601
				0.988908
				0.98453
				0.987443
				0.983487
				0.986299
				0.982961
				0.985551
				0.982998
				0.985252
				0.983607
				0.98543
				0.984739
				0.986076
				0.986306
				0.987138
				0.988201
				0.988538
				0.990311
				0.990185
				0.992529
				0.991985
				0.994761
				0.99385
				0.996932
				0.995708
				0.998981
				0.997496
				1.00087
				0.999171
				1.00256
				1.0007
				1.00405
				1.00206
				1.00531
				1.00323
				1.00635
				1.00422
				1.00714
				1.00501
				1.00771
				1.00563
				1.00804
				1.00605
				1.00814
				1.00629
				1.00802
				1.00636
				1.00769
				1.00626
				1.00717
				1.00598
				1.00646
				1.00553
				1.0056
				1.00494
				1.0046
				1.00423
				1.00353
				1.00344
				1.00242
				1.00259
				1.00134
				1.00175
				1.00036
				1.00096
				0.999544
				1.00029
				0.998952
				0.999774
				0.998635
				0.999472
				0.99862
				0.999407
				0.998898
				0.999582
				0.999441
				0.999978
				1.0002
				1.00057
				1.00112
				1.0013
				1.00213
				1.00214
				1.00318
				1.00302
				1.00419
				1.00389
				1.00513
				1.00471
				1.00596
				1.00544
				1.00664
				1.00606
				1.00714
				1.00654
				1.00744
				1.00687
				1.00761
				1.00704
				1.00687
				1.00671
				1.00444
				1.00578
				1.0029
				1.0023
				1.0027
				1.0035
				1.002
				1.00256
				1.00124
				1.00177
				1.0004
				1.00087
				0.999476
				0.999868
				0.998473
				0.998773
				0.997408
				0.997594
				0.9963
				0.996355
				0.995183
				0.995089
				0.994094
				0.993839
				0.99308
				0.992657
				0.992193
				0.991603
				0.991483
				0.990735
				0.990996
				0.990108
				0.990767
				0.989764
				0.990812
				0.989728
				0.991122
				0.989995
				0.991679
				0.990545
				0.992448
				0.991348
				0.993384
				0.992357
				0.994438
				0.993517
				0.995558
				0.994771
				0.996698
				0.996063
				0.99782
				0.997347
				0.998892
				0.998582
				0.999891
				0.999741
				1.0008
				1.0008
				1.00162
				1.00175
				1.00233
				1.00258
				1.00294
				1.00329
				1.00344
				1.00387
				1.00383
				1.00434
				1.00412
				1.0047
				1.0043
				1.00494
				1.00437
				1.00508
				1.00434
				1.0051
				1.00421
				1.005
				1.004
				1.00479
				1.0037
				1.00447
				1.00333
				1.00407
				1.00292
				1.00359
				1.00248
				1.00307
				1.00204
				1.00253
				1.00164
				1.00201
				1.00129
				1.00153
				1.00103
				1.00114
				1.00088
				1.00086
				1.00085
				1.0007
				1.00094
				1.00068
				1.00114
				1.00081
				1.00144
				1.00106
				1.0018
				1.00142
				1.0022
				1.00185
				1.0026
				1.00232
				1.00299
				1.0028
				1.00333
				1.00324
				1.00361
				1.00363
				1.00382
				1.00395
				1.00395
				1.00418
				1.00401
				1.00434
				1.004
				1.00438
				1.00355
				1.00462
				1.00291
				1.00227
				1.00226
				1.00194
				1.00204
				1.00189
				1.00143
				1.00158
				1.00082
				1.00105
				1.00014
				1.00048
				0.999398
				0.999859
				0.998593
				0.999184
				0.997742
				0.998465
				0.996861
				0.997713
				0.995974
				0.996945
				0.995111
				0.996184
				0.994304
				0.995456
				0.993592
				0.994792
				0.993015
				0.994225
				0.992608
				0.993786
				0.992401
				0.993501
				0.992409
				0.993387
				0.99264
				0.993455
				0.993078
				0.993706
				0.993689
				0.994119
				0.994437
				0.994669
				0.99528
				0.995322
				0.996176
				0.996043
				0.997091
				0.996801
				0.997994
				0.997566
				0.998861
				0.998315
				0.999674
				0.99903
				1.00042
				0.999697
				1.0011
				1.00031
				1.00169
				1.00085
				1.00221
				1.00133
				1.00264
				1.00174
				1.00298
				1.00209
				1.00324
				1.00237
				1.00341
				1.00259
				1.0035
				1.00274
				1.00352
				1.00283
				1.00346
				1.00286
				1.00333
				1.00282
				1.00314
				1.00273
				1.00289
				1.00259
				1.00261
				1.00241
				1.0023
				1.0022
				1.00199
				1.00199
				1.0017
				1.00178
				1.00146
				1.00159
				1.00128
				1.00145
				1.00119
				1.00137
				1.00118
				1.00136
				1.00126
				1.00141
				1.00142
				1.00152
				1.00164
				1.00168
				1.0019
				1.00188
				1.00217
				1.0021
				1.00245
				1.00232
				1.0027
				1.00253
				1.00292
				1.00271
				1.00309
				1.00286
				1.00319
				1.00296
				1.00323
				1.003
				1.0032
				1.00299
				1.00313
				1.00292
				1.00284
				1.00271
				1.00094
				1.00204
				1.00089
				1.00042
				1.0008
				1.00125
				1.00043
				1.00065
				1.00006
				1.00027
				0.999671
				0.999843
				0.999257
				0.999389
				0.99882
				0.998907
				0.998364
				0.998401
				0.997899
				0.997878
				0.997436
				0.997353
				0.996992
				0.996843
				0.996584
				0.996367
				0.996232
				0.995949
				0.995954
				0.995611
				0.995767
				0.995373
				0.995684
				0.995249
				0.995711
				0.995246
				0.995841
				0.995362
				0.996069
				0.995586
				0.996381
				0.995909
				0.996761
				0.996315
				0.997193
				0.996784
				0.997656
				0.997295
				0.998133
				0.997827
				0.998609
				0.998363
				0.999073
				0.998887
				0.999515
				0.999389
				0.999929
				0.99986
				1.00031
				1.00029
				1.00066
				1.00068
				1.00097
				1.00103
				1.00124
				1.00134
				1.00148
				1.00162
				1.00168
				1.00185
				1.00184
				1.00204
				1.00196
				1.0022
				1.00205
				1.00231
				1.0021
				1.00238
				1.00211
				1.00241
				1.0021
				1.00239
				1.00205
				1.00234
				1.00198
				1.00226
				1.00189
				1.00216
				1.0018
				1.00203
				1.0017
				1.00191
				1.00162
				1.00178
				1.00155
				1.00167
				1.0015
				1.00158
				1.00148
				1.00153
				1.00149
				1.0015
				1.00152
				1.00151
				1.00158
				1.00155
				1.00165
				1.00162
				1.00172
				1.00171
				1.00179
				1.0018
				1.00184
				1.00188
				1.00187
				1.00195
				1.00188
				1.00199
				1.00185
				1.002
				1.0018
				1.00198
				1.00172
				1.00192
				1.00162
				1.00184
				1.00139
				1.00187
				1.00095
				1.00076
				1.0007
				1.00061
				1.0006
				1.00053
				1.00027
				1.00037
				0.999975
				1.0001
				0.999659
				0.999828
				0.999322
				0.999541
				0.998967
				0.999238
				0.998599
				0.998922
				0.998225
				0.998598
				0.997855
				0.998273
				0.9975
				0.997957
				0.997172
				0.997659
				0.996886
				0.997392
				0.996657
				0.997167
				0.996496
				0.996995
				0.996414
				0.996886
				0.996417
				0.996844
				0.996511
				0.996875
				0.996687
				0.99698
				0.996935
				0.997151
				0.997241
				0.997378
				0.997588
				0.99765
				0.997963
				0.997953
				0.99835
				0.998275
				0.998739
				0.998606
				0.999119
				0.998935
				0.999483
				0.999255
				0.999827
				0.999562
				1.00015
				0.99985
				1.00044
				1.00012
				1.00071
				1.00036
				1.00094
				1.00058
				1.00115
				1.00078
				1.00133
				1.00096
				1.00147
				1.00112
				1.00159
				1.00125
				1.00168
				1.00136
				1.00174
				1.00145
				1.00177
				1.00151
				1.00179
				1.00156
				1.00177
				1.00158
				1.00174
				1.00158
				1.0017
				1.00157
				1.00164
				1.00155
				1.00159
				1.00152
				1.00154
				1.00149
				1.0015
				1.00147
				1.00148
				1.00146
				1.00147
				1.00145
				1.00148
				1.00146
				1.00151
				1.00148
				1.00155
				1.0015
				1.00158
				1.00153
				1.00162
				1.00155
				1.00164
				1.00156
				1.00166
				1.00157
				1.00165
				1.00156
				1.00162
				1.00154
				1.00157
				1.00149
				1.00149
				1.00143
				1.00139
				1.00134
				1.00127
				1.00123
				1.00114
				1.00108
				1.00001
				1.00071
				1.00021
				0.999944
				1.00016
				1.0004
				0.999957
				1.00004
				0.999768
				0.999844
				0.999574
				0.999627
				0.999372
				0.999407
				0.999164
				0.999181
				0.998953
				0.99895
				0.998742
				0.998718
				0.998537
				0.998489
				0.998343
				0.99827
				0.998168
				0.998069
				0.998019
				0.997895
				0.997903
				0.997757
				0.997828
				0.997661
				0.997797
				0.997614
				0.997813
				0.997617
				0.997874
				0.99767
				0.997977
				0.997768
				0.998117
				0.997909
				0.998288
				0.998085
				0.998483
				0.99829
				0.998693
				0.998516
				0.998912
				0.998753
				0.999134
				0.998996
				0.999354
				0.999238
				0.999567
				0.999473
				0.999772
				0.9997
				0.999966
				0.999914
				1.00015
				1.00011
				1.00032
				1.0003
				1.00048
				1.00047
				1.00062
				1.00063
				1.00075
				1.00078
				1.00087
				1.00091
				1.00097
				1.00103
				1.00106
				1.00114
				1.00114
				1.00122
				1.0012
				1.0013
				1.00125
				1.00135
				1.00129
				1.00139
				1.00132
				1.00142
				1.00133
				1.00144
				1.00134
				1.00144
				1.00133
				1.00143
				1.00133
				1.00141
				1.00132
				1.0014
				1.0013
				1.00137
				1.00129
				1.00135
				1.00128
				1.00133
				1.00127
				1.00132
				1.00126
				1.0013
				1.00124
				1.00129
				1.00122
				1.00128
				1.00119
				1.00126
				1.00116
				1.00123
				1.00111
				1.0012
				1.00105
				1.00115
				1.00098
				1.00109
				1.00089
				1.00102
				1.0008
				1.00094
				1.0007
				1.00083
				1.00056
				1.00078
				1.00032
				1.00028
				1.00016
				1.00017
				1.00012
				1.00008
				0.999944
				0.999997
				0.999796
				0.999853
				0.999639
				0.999713
				0.999473
				0.999568
				0.999302
				0.99942
				0.999126
				0.999271
				0.998951
				0.999122
				0.998781
				0.998975
				0.998621
				0.998835
				0.998478
				0.998706
				0.998355
				0.998592
				0.998259
				0.998498
				0.998194
				0.998429
				0.998165
				0.998387
				0.998173
				0.998374
				0.998218
				0.99839
				0.998299
				0.998439
				0.998411
				0.998517
				0.998549
				0.998621
				0.998707
				0.998747
				0.998878
				0.998889
				0.999058
				0.999041
				0.99924
				0.999199
				0.999421
				0.999359
				0.999598
				0.999517
				0.999769
				0.999672
				0.999933
				0.999821
				1.00009
				0.999962
				1.00023
				1.0001
				1.00037
				1.00022
				1.00049
				1.00034
				1.00061
				1.00045
				1.00071
				1.00055
				1.0008
				1.00065
				1.00088
				1.00073
				1.00095
				1.00081
				1.00101
				1.00087
				1.00106
				1.00093
				1.0011
				1.00098
				1.00113
				1.00102
				1.00116
				1.00105
				1.00117
				1.00108
				1.00118
				1.0011
				1.00119
				1.00111
				1.00119
				1.00112
				1.00119
				1.00112
				1.00118
				1.00112
				1.00118
				1.00111
				1.00117
				1.00111
				1.00115
				1.00109
				1.00113
				1.00107
				1.0011
				1.00105
				1.00106
				1.00101
				1.00102
				1.00097
				1.00096
				1.00093
				1.00089
				1.00087
				1.00082
				1.00081
				1.00073
				1.00074
				1.00064
				1.00066
				1.00053
				1.00056
				1.00044
				1.00045
				0.999863
				1.00025
				1.00002
				0.999893
				0.999983
				1.00004
				0.999844
				0.99984
				0.99971
				0.999731
				0.99957
				0.999604
				0.999425
				0.999473
				0.999275
				0.999339
				0.999125
				0.999204
				0.998976
				0.999072
				0.998835
				0.998943
				0.998706
				0.998822
				0.998593
				0.998711
				0.998501
				0.998615
				0.998433
				0.998538
				0.998392
				0.998483
				0.998381
				0.998454
				0.998403
				0.998447
				0.998461
				0.998472
				0.99855
				0.998534
				0.998664
				0.998625
				0.998796
				0.998739
				0.998941
				0.998871
				0.999091
				0.999014
				0.999244
				0.999164
				0.999395
				0.999316
				0.999543
				0.999467
				0.999684
				0.999614
				0.999819
				0.999755
				0.999947
				0.99989
				1.00007
				1.00002
				1.00018
				1.00014
				1.00029
				1.00025
				1.00039
				1.00036
				1.00049
				1.00046
				1.00058
				1.00055
				1.00067
				1.00065
				1.00075
				1.00074
				1.00083
				1.00082
				1.00091
				1.00089
				1.00097
				1.00096
				1.00104
				1.00102
				1.0011
				1.00108
				1.00115
				1.00112
				1.00119
				1.00116
				1.00122
				1.00119
				1.00125
				1.0012
				1.00126
				1.00121
				1.00127
				1.0012
				1.00126
				1.00119
				1.00124
				1.00116
				1.00121
				1.00113
				1.00117
				1.0011
				1.00113
				1.00106
				1.00108
				1.00102
				1.00101
				1.00097
				1.00094
				1.00092
				1.00086
				1.00086
				1.00077
				1.00079
				1.00068
				1.00071
				1.00058
				1.00063
				1.00048
				1.00055
				1.00038
				1.00046
				1.00027
				1.00037
				1.00001
				1.00019
			</DataArray>
			<DataArray type="Float64" Name="mach-number" Format="ascii">
				0.0761725
				0.0627026
				0.126852
				0.106178
				0.186804
				0.161531
				0.253514
				0.223775
				0.323974
				0.289686
				0.395996
				0.357208
				0.468358
				0.425121
				0.540463
				0.492742
				0.61202
				0.559657
				0.682784
				0.62559
				0.752391
				0.69015
				0.820273
				0.75277
				0.885261
				0.81264
				0.945852
				0.868421
				0.99744
				0.916802
				1.03872
				0.956401
				1.03691
				0.971879
				1.00155
				0.95376
				0.949787
				0.9162
				0.890083
				0.868146
				0.826158
				0.814137
				0.760022
				0.756385
				0.692782
				0.696265
				0.625051
				0.634609
				0.557196
				0.57194
				0.489374
				0.508654
				0.421598
				0.444975
				0.353677
				0.381074
				0.284971
				0.317041
				0.213751
				0.252986
				0.136709
				0.18962
				0.0548572
				0.131806
				0.0525053
				0.096466
				0.0118003
				0.069202
				0.0630108
				0.07154
				0.139261
				0.131313
				0.212883
				0.191634
				0.281108
				0.252978
				0.345323
				0.313089
				0.406625
				0.371384
				0.465316
				0.427554
				0.521153
				0.481216
				0.57347
				0.531747
				0.621228
				0.578299
				0.662954
				0.619724
				0.696793
				0.654548
				0.720618
				0.681082
				0.732411
				0.697486
				0.730958
				0.702395
				0.716255
				0.695171
				0.689548
				0.676369
				0.652736
				0.647275
				0.607836
				0.609667
				0.556531
				0.565146
				0.500135
				0.515116
				0.439609
				0.460637
				0.375755
				0.40254
				0.309493
				0.341604
				0.242252
				0.278761
				0.176356
				0.215475
				0.115184
				0.154031
				0.0621942
				0.0978377
				0.0237683
				0.0518176
				0.0309245
				0.0376567
				0.128193
				0.0926446
				0.177813
				0.135327
				0.229017
				0.190515
				0.280075
				0.247353
				0.331005
				0.30334
				0.382325
				0.358907
				0.434287
				0.414565
				0.486815
				0.470473
				0.539597
				0.526511
				0.592151
				0.582388
				0.643849
				0.637673
				0.693825
				0.691751
				0.74081
				0.743766
				0.783107
				0.792499
				0.817375
				0.835048
				0.839308
				0.870111
				0.839189
				0.885552
				0.818326
				0.873604
				0.784014
				0.842072
				0.741689
				0.799589
				0.694469
				0.750887
				0.644241
				0.698471
				0.592207
				0.64382
				0.539183
				0.587869
				0.485775
				0.531251
				0.432475
				0.474438
				0.37979
				0.41784
				0.328401
				0.361903
				0.279529
				0.307313
				0.235698
				0.255769
				0.20131
				0.212554
				0.176619
				0.189013
				0.124307
				0.170093
				0.117019
				0.034471
				0.175889
				0.148501
				0.207272
				0.189698
				0.241714
				0.220499
				0.282
				0.261291
				0.325586
				0.307767
				0.370284
				0.355995
				0.414653
				0.404073
				0.457616
				0.450888
				0.498161
				0.49549
				0.535189
				0.53685
				0.567435
				0.573761
				0.593456
				0.604785
				0.611759
				0.628316
				0.621028
				0.642775
				0.620506
				0.647001
				0.610242
				0.640629
				0.591082
				0.624243
				0.564386
				0.599146
				0.531688
				0.566957
				0.494445
				0.529247
				0.453945
				0.487394
				0.411267
				0.442525
				0.367247
				0.395517
				0.322397
				0.34696
				0.276785
				0.297081
				0.230081
				0.245748
				0.182146
				0.19285
				0.134575
				0.140119
				0.0954367
				0.0922018
				0.0833938
				0.0730554
				0.163663
				0.164558
				0.20655
				0.20078
				0.245682
				0.236661
				0.284971
				0.271309
				0.325874
				0.306969
				0.368752
				0.344773
				0.413388
				0.384761
				0.459266
				0.426437
				0.505738
				0.469118
				0.552089
				0.512091
				0.597541
				0.554603
				0.641171
				0.595797
				0.681736
				0.63462
				0.717518
				0.669538
				0.745952
				0.698381
				0.762569
				0.718696
				0.762751
				0.726694
				0.746635
				0.719506
				0.718368
				0.699538
				0.68228
				0.670506
				0.641331
				0.63552
				0.597364
				0.596692
				0.551579
				0.555449
				0.504816
				0.512804
				0.457707
				0.469518
				0.410794
				0.426232
				0.364643
				0.383566
				0.320012
				0.342223
				0.278135
				0.303092
				0.240837
				0.267269
				0.209278
				0.235838
				0.181638
				0.209902
				0.164203
				0.193673
				0.160188
				0.178318
				0.183942
				0.191994
				0.211767
				0.210547
				0.24224
				0.235782
				0.276629
				0.265249
				0.314051
				0.297832
				0.352854
				0.33237
				0.391651
				0.367662