<VTKFile type="UnstructuredGrid" version="0.1" byte_order="LittleEndian">
<UnstructuredGrid>
	<Piece NumberOfPoints="80" NumberOfCells="128">
		<CellData Scalars="density" Vectors="velocity">
			<DataArray type="Float64" Name="density" Format="ascii">
				0.99158
				0.9559
				0.977214
				0.979172
				0.922148
				0.980856
				0.856885
				0.947209
				0.852444
				0.921266
				0.931144
				0.945361
				1.02104
				0.993519
				1.07561
				1.03172
				1.07559
				1.04653
				1.02087
				1.03164
				0.930743
				0.993321
				0.851577
				0.94494
				0.85572
				0.920516
				0.921349
				0.946353
				0.978868
				0.979919
				0.906356
				0.973231
				0.986058
				0.930605
				0.997441
				1.00213
				0.992948
				0.988083
				0.988527
				0.980534
				0.991063
				0.978214
				0.99976
				0.989142
				1.00885
				1.0064
				1.01425
				1.01854
				1.01423
				1.01765
				1.0088
				1.01851
				0.999679
				1.00631
				0.990959
				0.989
				0.988436
				0.978042
				0.992925
				0.980432
				0.997317
				0.98809
				0.986596
				1.00511
				0.994347
				0.997817
				1.00049
				0.999866
				0.99791
				0.999978
				0.996343
				0.998708
				0.997443
				0.998233
				1.00057
				0.99911
				1.0037
				1.00075
				1.00554
				1.00193
				1.00554
				1.00208
				1.00368
				1.00193
				1.00056
				1.00074
				0.997438
				0.99911
				0.996369
				0.998252
				0.997975
				0.998769
				1.00045
				1.00012
				0.994325
				0.999786
				0.997639
				0.989649
				0.999089
				1.00117
				0.999531
				0.998689
				0.999786
				0.999146
				1.00018
				0.999772
				1.00061
				1.00051
				1.00095
				1.00111
				1.00115
				1.00139
				1.00115
				1.00133
				1.00096
				1.00139
				1.00063
				1.00112
				1.0002
				1.00053
				0.999817
				0.999805
				0.999573
				0.999195
				0.999117
				0.998764
				0.997175
				1.00165
			</DataArray>
			<DataArray type="Float64" Name="mach-number" Format="ascii">
				0.0820813
				0.0734459
				0.262905
				0.210681
				0.456612
				0.367586
				0.619388
				0.502216
				0.648689
				0.565371
				0.51879
				0.518536
				0.332689
				0.404193
				0.1512
				0.282625
				0.151487
				0.247527
				0.333151
				0.282902
				0.519581
				0.404645
				0.650232
				0.519272
				0.621536
				0.566554
				0.458739
				0.50362
				0.265187
				0.368828
				0.0964548
				0.216306
				0.301543
				0.153543
				0.385506
				0.360257
				0.407912
				0.403892
				0.416759
				0.432413
				0.408716
				0.439155
				0.38331
				0.413338
				0.356774
				0.36795
				0.343071
				0.332758
				0.343134
				0.337451
				0.356931
				0.332895
				0.383556
				0.36822
				0.409016
				0.413749
				0.416995
				0.439622
				0.407923
				0.432702
				0.385422
				0.403784
				0.301469
				0.361491
				0.334343
				0.322013
				0.380107
				0.376926
				0.385889
				0.382336
				0.38995
				0.385059
				0.387764
				0.385884
				0.379777
				0.382359
				0.371255
				0.377244
				0.36557
				0.373764
				0.365596
				0.375248
				0.371305
				0.373776
				0.379835
				0.377259
				0.387795
				0.382362
				0.38989
				0.385843
				0.385676
				0.384925
				0.379729
				0.382056
				0.337555
				0.376644
				0.376366
				0.325769
				0.383582
				0.396767
				0.382705
				0.384096
				0.381907
				0.383466
				0.380722
				0.381997
				0.379547
				0.380291
				0.378737
				0.378986
				0.378401
				0.378553
				0.378395
				0.379732
				0.37872
				0.378548
				0.379515
				0.378968
				0.38067
				0.380249
				0.381833
				0.38192
				0.382608
				0.383344
				0.38352
				0.383869
				0.375023
				0.397766
			</DataArray>
			<DataArray type="Float64" Name="pressure" Format="ascii">
				5.03078
				5.00435
				4.88416
				4.96458
				4.49266
				4.88208
				4.04175
				4.61804
				3.99444
				4.4425
				4.49034
				4.60553
				5.08354
				4.92868
				5.46729
				5.17838
				5.46697
				5.24984
				5.08236
				5.17783
				4.48764
				4.92739
				3.98884
				4.60289
				4.03417
				4.43789
				4.48631
				4.61301
				4.88057
				4.8791
				5.05356
				4.95329
				4.95504
				4.95568
				4.93369
				4.94356
				4.89236
				4.87092
				4.86086
				4.8119
				4.87903
				4.79479
				4.94181
				4.86936
				5.00711
				4.98901
				5.04649
				5.07472
				5.04638
				5.08773
				5.00677
				5.07447
				4.94124
				4.98843
				4.87828
				4.86838
				4.86018
				4.79365
				4.89221
				4.81137
				4.93416
				4.87162
				4.9506
				4.94602
				4.9562
				4.97332
				4.94944
				4.95216
				4.93147
				4.94577
				4.92109
				4.93808
				4.92885
				4.93495
				4.95059
				4.94085
				4.97221
				4.9519
				4.98503
				4.95985
				4.985
				4.96088
				4.97213
				4.95983
				4.95049
				4.95186
				4.92882
				4.94084
				4.92127
				4.93508
				4.93196
				4.93848
				4.94969
				4.94662
				4.95195
				4.95348
				4.93842
				4.93437
				4.94035
				4.94237
				4.94337
				4.93718
				4.94507
				4.94066
				4.94776
				4.94502
				4.95081
				4.95012
				4.95315
				4.95424
				4.95456
				4.95621
				4.95458
				4.95591
				4.9532
				4.95623
				4.9509
				4.95431
				4.9479
				4.95026
				4.94528
				4.94524
				4.94366
				4.94099
				4.94053
				4.93763
				4.93787
				4.94343
			</DataArray>
			<DataArray type="Float64" Name="velocity" NumberOfComponents="3" Format="ascii">
				0.212032 -0.0538236 0.0 
				0.198569 0.010343 0.0 
				0.605282 -0.34246 0.0 
				0.541763 -0.146836 0.0 
				1.12621 -0.392096 0.0 
				0.940395 -0.239186 0.0 
				1.58706 -0.120873 0.0 
				1.30324 -0.152041 0.0 
				1.6188 0.374187 0.0 
				1.46428 0.117517 0.0 
				1.16442 0.679124 0.0 
				1.29336 0.401363 0.0 
				0.635735 0.606078 0.0 
				0.953123 0.475606 0.0 
				0.319244 0.246515 0.0 
				0.680434 0.313518 0.0 
				0.31948 -0.247448 0.0 
				0.655969 -0.000387226 0.0 
				0.636402 -0.607098 0.0 
				0.680871 -0.314294 0.0 
				1.16601 -0.680241 0.0 
				0.954079 -0.476283 0.0 
				1.62237 -0.37486 0.0 
				1.2952 -0.401607 0.0 
				1.59209 0.122093 0.0 
				1.46728 -0.11652 0.0 
				1.13062 0.395319 0.0 
				1.30649 0.154764 0.0 
				0.608443 0.347394 0.0 
				0.942943 0.243131 0.0 
				0.261536 0.0649758 0.0 
				0.560498 0.138657 0.0 
				0.797334 -0.0628589 0.0 
				0.419216 0.00459517 0.0 
				1.01258 -0.0617706 0.0 
				0.943484 -0.0785335 0.0 
				1.07017 -0.0499912 0.0 
				1.0579 -0.0817402 0.0 
				1.09347 -0.0036357 0.0 
				1.13271 -0.0400949 0.0 
				1.07116 0.062875 0.0 
				1.14951 0.0452514 0.0 
				1.00402 0.0933482 0.0 
				1.07706 0.131972 0.0 
				0.937783 0.0708392 0.0 
				0.958672 0.143409 0.0 
				0.905233 0.0203697 0.0 
				0.875158 0.0803736 0.0 
				0.905391 -0.0206206 0.0 
				0.892767 -0.000234412 0.0 
				0.938177 -0.0710086 0.0 
				0.875472 -0.0808187 0.0 
				1.00465 -0.0933202 0.0 
				0.959326 -0.14374 0.0 
				1.07195 -0.0624323 0.0 
				1.07812 -0.131909 0.0 
				1.09406 0.00475786 0.0 
				1.15074 -0.0442993 0.0 
				1.07012 0.0516417 0.0 
				1.13339 0.0420765 0.0 
				1.01239 0.0631406 0.0 
				1.05749 0.0843313 0.0 
				0.796205 0.0671976 0.0 
				0.945336 0.0812189 0.0 
				0.8832 0.00322401 0.0 
				0.850616 0.00195849 0.0 
				1.00029 -0.00856337 0.0 
				0.992516 0.00657345 0.0 
				1.01498 -0.00696071 0.0 
				1.00607 0.0036704 0.0 
				1.02539 0.00722008 0.0 
				1.01306 0.0084589 0.0 
				1.01955 0.0268817 0.0 
				1.01502 0.018734 0.0 
				0.998894 0.0356453 0.0 
				1.00577 0.024896 0.0 
				0.977279 0.0290191 0.0 
				0.992657 0.022429 0.0 
				0.963023 0.0118377 0.0 
				0.983868 0.0133484 0.0 
				0.963089 -0.0118269 0.0 
				0.987893 1.60558e-05 0.0 
				0.97741 -0.0289397 0.0 
				0.983899 -0.0132938 0.0 
				0.999051 -0.035436 0.0 
				0.992699 -0.0223201 0.0 
				1.01964 -0.026483 0.0 
				1.00578 -0.0247028 0.0 
				1.02524 -0.0066181 0.0 
				1.01492 -0.0184483 0.0 
				1.01444 0.0076356 0.0 
				1.01272 -0.00807566 0.0 
				0.999337 0.00921488 0.0 
				1.00535 -0.00304936 0.0 
				0.891301 -0.00547358 0.0 
				0.991953 -0.00484223 0.0 
				0.990755 -0.00842019 0.0 
				0.860696 -9.24399e-05 0.0 
				1.00925 -0.00277555 0.0 
				1.04306 0.00439686 0.0 
				1.00703 -0.000628414 0.0 
				1.01048 0.000307385 0.0 
				1.00497 0.00150911 0.0 
				1.00894 0.00385758 0.0 
				1.00193 0.00277381 0.0 
				1.0052 0.00561047 0.0 
				0.998925 0.0028083 0.0 
				1.00085 0.00549351 0.0 
				0.996864 0.00171426 0.0 
				0.997547 0.00378096 0.0 
				0.996023 0.000286522 0.0 
				0.996468 0.00140574 0.0 
				0.996008 -0.000233912 0.0 
				0.999571 3.85484e-05 0.0 
				0.99682 -0.00166386 0.0 
				0.996456 -0.00131987 0.0 
				0.998845 -0.00276513 0.0 
				0.997501 -0.00367828 0.0 
				1.0018 -0.00275191 0.0 
				1.00075 -0.0053766 0.0 
				1.00478 -0.00153951 0.0 
				1.005 -0.00550395 0.0 
				1.00678 0.000496929 0.0 
				1.00863 -0.00379573 0.0 
				1.00909 0.00245095 0.0 
				1.00989 -0.000217497 0.0 
				0.987386 0.00929404 0.0 
				1.04555 -0.00512386 0.0 
			</DataArray>
		</CellData>
		<Points>
		<DataArray type="Float64" NumberOfComponents="3" Format="ascii">
			0.5 0 0.0 
			0.46194 0.191342 0.0 
			0.353553 0.353553 0.0 
			0.191342 0.46194 0.0 
			-2.18557e-08 0.5 0.0 
			-0.191342 0.46194 0.0 
			-0.353553 0.353553 0.0 
			-0.46194 0.191342 0.0 
			-0.5 -4.37114e-08 0.0 
			-0.46194 -0.191342 0.0 
			-0.353553 -0.353553 0.0 
			-0.191342 -0.46194 0.0 
			6.55671e-08 -0.5 0.0 
			0.191342 -0.46194 0.0 
			0.353553 -0.353553 0.0 
			0.46194 -0.191342 0.0 
			0.884503 0.175939 0.0 
			0.749846 0.501031 0.0 
			0.501031 0.749846 0.0 
			0.175939 0.884503 0.0 
			-0.175939 0.884503 0.0 
			-0.501031 0.749846 0.0 
			-0.749846 0.501031 0.0 
			-0.884503 0.175939 0.0 
			-0.884503 -0.175939 0.0 
			-0.749846 -0.501031 0.0 
			-0.501031 -0.749846 0.0 
			-0.175939 -0.884503 0.0 
			0.175939 -0.884503 0.0 
			0.501031 -0.749846 0.0 
			0.749846 -0.501031 0.0 
			0.884503 -0.175938 0.0 
			2.20148 0 0.0 
			2.0339 0.842468 0.0 
			1.55668 1.55668 0.0 
			0.842468 2.0339 0.0 
			-9.62295e-08 2.20148 0.0 
			-0.842468 2.0339 0.0 
			-1.55668 1.55668 0.0 
			-2.0339 0.842468 0.0 
			-2.20148 -1.92459e-07 0.0 
			-2.0339 -0.842468 0.0 
			-1.55668 -1.55668 0.0 
			-0.842468 -2.0339 0.0 
			2.88689e-07 -2.20148 0.0 
			0.842468 -2.0339 0.0 
			1.55668 -1.55668 0.0 
			2.0339 -0.842468 0.0 
			6.28184 1.24954 0.0 
			5.32549 3.55838 0.0 
			3.55838 5.32549 0.0 
			1.24954 6.28184 0.0 
			-1.24954 6.28184 0.0 
			-3.55838 5.32549 0.0 
			-5.32549 3.55838 0.0 
			-6.28184 1.24954 0.0 
			-6.28184 -1.24954 0.0 
			-5.32549 -3.55838 0.0 
			-3.55838 -5.32549 0.0 
			-1.24954 -6.28184 0.0 
			1.24954 -6.28184 0.0 
			3.55838 -5.32549 0.0 
			5.32549 -3.55838 0.0 
			6.28184 -1.24953 0.0 
			20.0001 0 0.0 
			18.4777 7.6537 0.0 
			14.1422 14.1422 0.0 
			7.6537 18.4777 0.0 
			-8.74231e-07 20.0001 0.0 
			-7.6537 18.4777 0.0 
			-14.1422 14.1422 0.0 
			-18.4777 7.65369 0.0 
			-20.0001 -1.74846e-06 0.0 
			-18.4777 -7.6537 0.0 
			-14.1422 -14.1422 0.0 
			-7.65369 -18.4777 0.0 
			2.62269e-06 -20.0001 0.0 
			7.6537 -18.4777 0.0 
			14.1422 -14.1422 0.0 
			18.4777 -7.65369 0.0 
		</DataArray>
		</Points>
		<Cells>
			<DataArray type="UInt32" Name="connectivity" Format="ascii">
				0 16 1 
				0 31 16 
				1 17 2 
				1 16 17 
				2 18 3 
				2 17 18 
				3 19 4 
				3 18 19 
				4 20 5 
				4 19 20 
				5 21 6 
				5 20 21 
				6 22 7 
				6 21 22 
				7 23 8 
				7 22 23 
				8 24 9 
				8 23 24 
				9 25 10 
				9 24 25 
				10 26 11 
				10 25 26 
				11 27 12 
				11 26 27 
				12 28 13 
				12 27 28 
				13 29 14 
				13 28 29 
				14 30 15 
				14 29 30 
				15 31 0 
				15 30 31 
				16 32 33 
				16 31 32 
				17 33 34 
				17 16 33 
				18 34 35 
				18 17 34 
				19 35 36 
				19 18 35 
				20 36 37 
				20 19 36 
				21 37 38 
				21 20 37 
				22 38 39 
				22 21 38 
				23 39 40 
				23 22 39 
				24 40 41 
				24 23 40 
				25 41 42 
				25 24 41 
				26 42 43 
				26 25 42 
				27 43 44 
				27 26 43 
				28 44 45 
				28 27 44 
				29 45 46 
				29 28 45 
				30 46 47 
				30 29 46 
				31 47 32 
				31 30 47 
				32 48 33 
				32 63 48 
				33 49 34 
				33 48 49 
				34 50 35 
				34 49 50 
				35 51 36 
				35 50 51 
				36 52 37 
				36 51 52 
				37 53 38 
				37 52 53 
				38 54 39 
				38 53 54 
				39 55 40 
				39 54 55 
				40 56 41 
				40 55 56 
				41 57 42 
				41 56 57 
				42 58 43 
				42 57 58 
				43 59 44 
				43 58 59 
				44 60 45 
				44 59 60 
				45 61 46 
				45 60 61 
				46 62 47 
				46 61 62 
				47 63 32 
				47 62 63 
				48 64 65 
				48 63 64 
				49 65 66 
				49 48 65 
				50 66 67 
				50 49 66 
				51 67 68 
				51 50 67 
				52 68 69 
				52 51 68 
				53 69 70 
				53 52 69 
				54 70 71 
				54 53 70 
				55 71 72 
				55 54 71 
				56 72 73 
				56 55 72 
				57 73 74 
				57 56 73 
				58 74 75 
				58 57 74 
				59 75 76 
				59 58 75 
				60 76 77 
				60 59 76 
				61 77 78 
				61 60 77 
				62 78 79 
				62 61 78 
				63 79 64 
				63 62 79 
			</DataArray>
			<DataArray type="UInt32" Name="offsets" Format="ascii">
				3
				6
				9
				12
				15
				18
				21
				24
				27
				30
				33
				36
				39
				42
				45
				48
				51
				54
				57
				60
				63
				66
				69
				72
				75
				78
				81
				84
				87
				90
				93
				96
				99
				102
				105
				108
				111
				114
				117
				120
				123
				126
				129
				132
				135
				138
				141
				144
				147
				150
				153
				156
				159
				162
				165
				168
				171
				174
				177
				180
				183
				186
				189
				192
				195
				198
				201
				204
				207
				210
				213
				216
				219
				222
				225
				228
				231
				234
				237
				240
				243
				246
				249
				252
				255
				258
				261
				264
				267
				270
				273
				276
				279
				282
				285
				288
				291
				294
				297
				300
				303
				306
				309
				312
				315
				318
				321
				324
				327
				330
				333
				336
				339
				342
				345
				348
				351
				354
				357
				360
				363
				366
				369
				372
				375
				378
				381
				384
			</DataArray>
			<DataArray type="Int32" Name="types" Format="ascii">
				5
				5
				5
				5
				5
				5
				5
				5
				5
				5
				5
				5
				5
				5
				5
				5
				5
				5
				5
				5
				5
				5
				5
				5
				5
				5
				5
				5
				5
				5
				5
				5
				5
				5
				5
				5
				5
				5
				5
				5
				5
				5
				5
				5
				5
				5
				5
				5
				5
				5
				5
				5
				5
				5
				5
				5
				5
				5
				5
				5
				5
				5
				5
				5
				5
				5
				5
				5
				5
				5
				5
				5
				5
				5
				5
				5
				5
				5
				5
				5
				5
				5
				5
				5
				5
				5
				5
				5
				5
				5
				5
				5
				5
				5
				5
				5
				5
				5
				5
				5
				5
				5
				5
				5
				5
				5
				5
				5
				5
				5
				5
				5
				5
				5
				5
				5
				5
				5
				5
				5
				5
				5
				5
				5
				5
				5
				5
				5
			</DataArray>
		</Cells>
	</Piece>
</UnstructuredGrid>
</VTKFile>