<VTKFile type="UnstructuredGrid" version="0.1" byte_order="LittleEndian">
<UnstructuredGrid>
	<Piece NumberOfPoints="2050" NumberOfCells="3972">
		<CellData Scalars="density" Vectors="velocity">
			<DataArray type="Float64" Name="density" Format="ascii">
				1.02196
				0.996958
				0.999196
				0.999077
				1.00008
				1.00172
				1.00417
				0.99761
				1.00216
				1.00376
				0.997061
				1.00301
				1.00304
				0.999563
				0.99777
				0.968385
				0.939268
				1.00038
				0.998076
				1.00267
				1.00052
				1.00266
				1.0041
				0.981233
				1.00165
				0.988032
				0.997672
				0.93802
				1.018
				1.01811
				0.999322
				1.00014
				0.964349
				0.998827
				1.05443
				0.999549
				0.998144
				1.00034
				1.00221
				0.985014
				0.997829
				0.995039
				0.997971
				0.990343
				0.994277
				1.00068
				0.99812
				1.00428
				1.00172
				1.00203
				1.00207
				0.999928
				1.0193
				0.998893
				1.00456
				0.99896
				0.983913
				0.998208
				1.00234
				0.993118
				1.04254
				0.997332
				1.00536
				0.99743
				1.00001
				1.00546
				0.997031
				1.0043
				1.02115
				1.00086
				0.997496
				1.00969
				1.002
				0.999348
				1.00239
				0.897037
				0.997188
				1.00753
				1.0026
				1.00647
				1.00198
				0.997295
				1.00167
				1.00336
				0.99425
				0.998984
				0.988106
				1.00015
				1.00114
				1.00369
				0.789729
				1.05118
				1.00058
				0.999513
				1.00329
				0.991584
				1.00092
				1.00162
				0.994414
				0.993968
				1.00137
				0.998826
				1.00354
				1.0023
				1.00231
				0.870936
				0.998785
				0.999528
				0.998182
				0.909083
				0.997878
				0.889876
				1.00912
				0.997016
				0.998062
				0.998711
				0.997711
				1.00338
				1.01796
				0.998934
				1.01033
				0.99524
				0.981636
				0.998215
				0.995321
				1.00239
				1.00147
				0.972309
				1.00218
				1.00206
				1.00207
				1.00033
				1.00322
				0.99949
				1.00494
				0.811902
				0.999924
				0.994927
				1.00208
				0.993235
				0.740671
				0.997443
				1.00493
				1.00226
				1.00458
				0.999463
				0.989178
				1.00134
				0.991184
				1.02355
				1.00528
				1.00227
				1.00112
				0.998476
				0.985483
				0.952259
				0.994999
				0.999788
				0.790117
				1.00033
				1.00402
				1.0013
				0.989586
				0.963411
				0.994714
				1.00332
				1.00034
				1.01448
				0.994995
				1.00305
				1.00052
				1.00178
				0.783817
				0.973062
				0.998396
				0.998402
				0.994802
				1.00072
				0.999698
				0.99956
				1.00111
				1.00134
				1.00932
				1.00247
				1.00136
				1.00187
				0.997875
				0.997467
				1.0038
				0.997664
				0.997181
				0.972921
				1.01788
				0.925329
				1.00211
				0.999672
				0.99786
				1.04001
				1.00565
				1.00123
				1.00547
				1.00335
				1.00196
				0.9888
				0.982763
				0.998892
				0.987818
				1.00022
				0.997722
				1.00204
				1.00086
				0.996705
				0.996923
				0.996903
				0.775245
				0.998094
				1.00225
				0.997898
				0.98142
				0.923526
				1.00255
				0.985236
				0.999105
				0.980671
				0.997669
				1.0107
				1.00205
				0.999124
				1.02177
				0.934281
				0.997725
				1.00005
				1.00291
				1.00209
				1.00289
				1.00132
				0.999557
				1.00147
				1.00427
				1.00002
				1.00176
				1.00165
				1.00152
				0.919838
				0.997432
				0.944229
				1.00442
				1.02428
				0.927871
				0.991112
				0.997574
				0.925038
				0.995723
				0.998168
				0.944852
				0.997139
				1.00232
				0.98948
				1.04793
				0.998819
				1.00243
				0.999003
				1.02448
				0.946091
				0.999345
				0.999109
				0.993298
				1.0008
				0.997996
				1.00465
				0.986691
				1.01636
				0.99011
				1.01775
				0.999411
				1.00047
				0.998256
				0.985991
				1.00151
				0.997431
				1.00349
				1.00233
				1.00672
				0.996284
				1.00255
				0.994143
				1.00107
				0.986074
				1.00347
				1.01949
				0.934314
				0.993042
				1.00286
				0.999231
				0.997826
				1.00228
				1.00001
				1.00209
				1.00472
				1.00232
				0.995484
				0.945973
				0.987139
				0.997131
				0.999462
				1.00163
				0.997761
				1.00199
				0.999256
				1.00098
				1.00249
				1.00401
				1.00351
				1.00138
				1.00562
				1.00018
				1.00399
				0.999308
				1.00022
				0.99402
				0.997673
				1.00427
				1.00961
				0.999131
				1.0017
				1.00157
				1.02355
				0.998442
				0.998679
				0.997696
				1.0002
				1.00936
				0.994798
				1.01461
				0.929366
				0.89508
				1.00148
				0.998235
				0.980197
				1.00167
				1.01138
				0.999134
				1.03615
				0.99356
				0.995455
				1.00127
				0.975504
				0.904924
				1.00301
				0.999506
				0.991041
				0.903786
				1.00162
				0.94769
				0.99776
				0.983375
				0.999578
				1.00957
				0.997527
				1.00037
				0.997928
				1.00092
				0.714096
				0.993396
				0.999786
				0.995337
				1.02488
				0.957493
				1.00318
				0.998228
				0.998268
				0.996937
				1.0022
				1.00128
				1.00324
				0.999227
				1.00163
				1.02712
				0.989209
				1.00087
				0.995081
				1.00203
				0.988389
				1.00176
				0.999659
				1.00658
				1.00503
				1.04615
				0.99152
				1.00209
				1.0038
				0.998089
				0.998204
				1.00066
				1.00308
				1.00254
				1.00763
				1.02402
				1.00249
				0.980803
				1.00239
				0.867479
				1.00357
				1.00799
				1.00327
				1.00549
				0.885841
				1.03827
				1.0002
				0.99714
				1.00112
				0.817885
				0.995089
				1.00228
				0.995827
				1.002
				1.00148
				1.00268
				1.00429
				0.998079
				1.00204
				0.999382
				0.997534
				1.00126
				0.982474
				1.00539
				1.00434
				0.884658
				0.997958
				0.998531
				1.00053
				1.00224
				0.995692
				1.02683
				0.900056
				0.997491
				0.993707
				0.997283
				1.00557
				0.99947
				0.999376
				1.00289
				0.99772
				1.02503
				1.00431
				0.997675
				0.994458
				0.917337
				0.950428
				0.999978
				0.999113
				1.00081
				1.00179
				0.999332
				1.03626
				0.944798
				1.00228
				0.995021
				0.99748
				0.805404
				0.920676
				1.00156
				1.00377
				0.960517
				1.00149
				0.993234
				0.986448
				0.895631
				0.994883
				1.00086
				0.995866
				0.997499
				0.994611
				0.993142
				1.01529
				0.999244
				1.00243
				0.952832
				1.00483
				0.97844
				1.00683
				1.00219
				0.998225
				0.997186
				0.998208
				1.00137
				0.994722
				0.999067
				1.00038
				1.00338
				1.06793
				1.04615
				1.00054
				1.00223
				1.00328
				0.794063
				1.0004
				0.897887
				1.00169
				1.00381
				0.960211
				1.00236
				1.00336
				0.989584
				0.831307
				0.82677
				1.00369
				0.998916
				0.999702
				0.99831
				0.998706
				1.00031
				1.00442
				1.00299
				1.00219
				1.00332
				1.0028
				1.00326
				0.907479
				1.00219
				1.00456
				1.01581
				1.00223
				1.00452
				0.99955
				1.00427
				0.99562
				1.0005
				0.928716
				1.00414
				0.9997
				0.99451
				1.0022
				1.00452
				0.925955
				0.998986
				1.00305
				0.995055
				0.998225
				1.00228
				0.983893
				0.995599
				0.997881
				1.00509
				0.994741
				0.990384
				1.00124
				0.991828
				0.981619
				1.00434
				0.99911
				0.938671
				1.00084
				0.965687
				0.980406
				1.00257
				0.959044
				1.0029
				1.0038
				1.05017
				1.00155
				1.00045
				1.00741
				1.00279
				0.980626
				1.00146
				1.00365
				0.743819
				1.00238
				1.01047
				1.02052
				0.955345
				1.00677
				1.00222
				0.998559
				0.996379
				1.00156
				1.00255
				0.99779
				1.00205
				1.0022
				0.997854
				0.997254
				0.999935
				0.995179
				1.00213
				1.00219
				0.995846
				0.996089
				0.961244
				1.0069
				1.0007
				1.0613
				1.00286
				1.00274
				0.998167
				1.00618
				0.998146
				0.96503
				0.998801
				0.996706
				1.00356
				1.0108
				1.00184
				1.00765
				0.990594
				1.00414
				0.982901
				0.999819
				1.00113
				1.0051
				0.814025
				1.00006
				1.00375
				0.995625
				1.00224
				1.00121
				1.04392
				0.987272
				0.87713
				1.00231
				0.956633
				0.999949
				0.999765
				1.00059
				1.00206
				0.933504
				1.03478
				0.996979
				1.00065
				1.02154
				1.0355
				0.999582
				1.0241
				1.00298
				1.00092
				1.00116
				1.00228
				1.00919
				0.993794
				1.0019
				1.00156
				1.00213
				0.988847
				1.00049
				0.996463
				0.944734
				0.971631
				1.00147
				0.99967
				0.993729
				0.97764
				0.974004
				1.00147
				1.01241
				0.995269
				0.999052
				0.99936
				0.953667
				0.999466
				0.998811
				1.00237
				1.00219
				0.996946
				0.997979
				0.995325
				0.962505
				1.00291
				1.00131
				1.00002
				1.00484
				1.00026
				1.02164
				1.0018
				1.00356
				0.937107
				1.04282
				1.00231
				1.01475
				1.00238
				0.987379
				0.694354
				1.03543
				1.00038
				0.981799
				0.995209
				1.00201
				1.02737
				1.00228
				0.999959
				0.994087
				1.00146
				1.00498
				1.03534
				1.00783
				1.00262
				0.997175
				1.03247
				1.00099
				0.912072
				1.00118
				1.00127
				0.944933
				1.04653
				1.00231
				0.915363
				1.00149
				1.00905
				0.984793
				0.987991
				1.00015
				0.891209
				1.02015
				1.01546
				1.00375
				0.994303
				1.00087
				1.00552
				0.942657
				0.9957
				0.971727
				1.02124
				1.00273
				0.996771
				1.00629
				0.876294
				0.994764
				0.996712
				1.00329
				0.977279
				1.00385
				0.977314
				1.00629
				1.00179
				1.00375
				0.998872
				0.932006
				0.99385
				0.999708
				1.00358
				0.987348
				0.999441
				0.993676
				0.996831
				1.00192
				1.0064
				0.999373
				1.06359
				1.0425
				0.996155
				1.00209
				1.03178
				0.985453
				1.06986
				1.00201
				1.00224
				1.00082
				1.00176
				1.02721
				1.00269
				0.999468
				0.999581
				1.03525
				1.00316
				1.0006
				0.99897
				1.00091
				1.00093
				1.00478
				0.999848
				1.00037
				1.03117
				1.00104
				1.00684
				0.997264
				0.973304
				0.995064
				0.959609
				0.997263
				1.00225
				1.00102
				0.99841
				0.996529
				1.00191
				1.00431
				0.993118
				1.00253
				0.999564
				1.00136
				0.909737
				1.00201
				1.00116
				1.00411
				0.999314
				0.998053
				1.00216
				1.0028
				1.00424
				0.999353
				0.982425
				1.01809
				0.948325
				1.00206
				1.0059
				0.995689
				0.971817
				1.00179
				0.999428
				1.00431
				1.02231
				0.994186
				0.991315
				0.996954
				1.0023
				1.04672
				1.03575
				0.997403
				1.00152
				0.978179
				1.00058
				0.995339
				1.04719
				0.991962
				0.632566
				0.995546
				0.999543
				1.00562
				1.01959
				1.00071
				0.993703
				1.00044
				1.01143
				0.994491
				1.00403
				0.995552
				1.00439
				0.991663
				1.00072
				1.0014
				1.00321
				1.00329
				0.953127
				0.999371
				0.993825
				1.0038
				0.993776
				1.00436
				1.00186
				0.989251
				1.01975
				1.00215
				1.00237
				0.999085
				0.999371
				0.995093
				0.902053
				1.00595
				1.0095
				1.00592
				0.997529
				0.995738
				1.00264
				0.882762
				1.00048
				0.975378
				1.00017
				0.999879
				0.942936
				1.00433
				0.807412
				0.990938
				0.983326
				0.997867
				0.992331
				1.00235
				0.999919
				0.995444
				0.989786
				1.00164
				0.832749
				1.00378
				0.956646
				0.99649
				1.00211
				1.00318
				1.03108
				0.999696
				0.931525
				1.03539
				1.00093
				1.00047
				0.997361
				0.997932
				0.99833
				0.994853
				1.0022
				0.998741
				0.981244
				0.850295
				0.969846
				0.973405
				1.00115
				0.997515
				1.0081
				0.996235
				0.999033
				1.00287
				0.880555
				1.00004
				0.952562
				1.01295
				1.00162
				0.999419
				0.990951
				1.004
				0.999169
				1.00124
				1.00499
				0.998361
				1.0197
				1.00227
				1.00284
				1.00567
				1.00141
				0.992827
				1.00163
				0.997692
				1.00083
				0.919043
				1.00059
				0.996167
				0.999796
				1.02392
				0.765329
				1.00217
				0.813729
				0.946465
				1.00265
				1.00341
				0.961604
				0.999236
				1.00029
				0.998738
				0.992713
				1.01843
				0.999834
				1.0036
				1.01759
				0.776013
				0.998805
				0.994846
				1.00243
				0.997073
				0.998262
				1.01641
				0.835149
				0.997287
				1.00105
				1.00275
				0.722859
				0.934585
				1.0045
				1.01394
				1.00293
				0.986771
				0.993668
				1.00089
				0.977075
				0.995483
				1.0025
				0.99881
				1.01287
				1.02226
				0.988642
				0.548606
				0.980133
				0.997596
				0.999083
				0.999595
				1.00488
				0.75022
				0.991333
				0.999773
				0.999577
				0.988741
				1.00243
				1.00161
				0.99806
				1.04851
				1.00162
				0.999115
				0.99689
				0.832628
				1.0102
				0.901444
				0.997461
				0.995084
				0.96863
				0.993866
				0.999005
				0.996253
				1.00191
				1.01789
				0.877599
				1.01804
				0.989339
				0.997544
				0.998201
				1.05458
				0.999929
				1.01847
				0.961585
				0.998704
				1.00244
				1.00247
				0.968896
				1.00364
				1.00109
				0.998261
				1.00696
				1.00289
				1.00138
				0.999517
				0.986137
				1.00123
				0.987247
				1.00426
				1.00174
				0.998851
				0.951176
				0.998649
				1.00304
				0.999809
				0.997759
				1.00097
				1.00324
				1.00077
				0.998488
				0.98165
				0.998904
				1.00798
				1.00428
				1.00168
				0.998793
				1.0005
				0.990577
				1.00458
				1.00352
				1.00394
				0.997525
				0.997619
				0.996764
				0.997199
				0.999496
				0.997363
				1.00136
				0.999549
				1.00214
				1.00434
				0.999409
				0.665834
				1.00351
				0.934771
				1.00358
				0.995815
				0.992583
				0.999177
				1.00118
				1.00109
				1.00209
				1.0133
				1.00248
				1.0097
				1.00058
				0.620796
				1.00364
				1.00152
				0.995378
				0.970956
				1.00178
				1.03595
				1.00871
				1.00342
				1.00139
				0.992769
				1.00224
				1.00069
				0.997729
				1.00078
				1.00646
				1.00285
				1.0015
				1.00063
				0.993787
				1.00238
				0.969701
				1.03465
				1.00299
				1.00519
				0.993185
				0.995456
				0.970837
				1.00158
				1.00167
				1.00757
				0.999088
				0.947853
				0.991429
				1.00425
				1.02403
				1.00399
				1.0024
				1.00173
				0.99624
				0.999716
				1.00203
				1.00592
				0.985912
				0.996376
				0.999701
				1.003
				0.990029
				1.00869
				1.00385
				1.00211
				1.00065
				1.00001
				0.992894
				1.01223
				1.00135
				1.00054
				1.00882
				0.993414
				0.998464
				0.997349
				1.00152
				1.00367
				0.998169
				0.99847
				0.996889
				0.999822
				1.01531
				0.998292
				0.995851
				0.998329
				1.00218
				0.999018
				1.00464
				1.00007
				1.02241
				1.00188
				1.00322
				0.999494
				0.920412
				1.00273
				0.944065
				0.999838
				0.983491
				0.99887
				0.996118
				1.00115
				0.998965
				1.03106
				0.980455
				0.987656
				1.00262
				1.0011
				0.989921
				0.998557
				1.0018
				1.0011
				0.999431
				1.0326
				1.07081
				1.00301
				1.00284
				0.998416
				0.883671
				1.05535
				0.997466
				1.00686
				1.01028
				0.942708
				0.997495
				0.99599
				0.998491
				0.99915
				0.922598
				0.999294
				0.996071
				0.986954
				0.998965
				1.00328
				0.972765
				0.999503
				1.00163
				1.00855
				1.00196
				1.00178
				1.00051
				0.99713
				0.990044
				0.998581
				1.01208
				1.00338
				1.00378
				1.00537
				0.999483
				1.00122
				1.00007
				0.997437
				1.00649
				1.00189
				0.935418
				0.998534
				0.998796
				0.991658
				1.00191
				0.99957
				0.993892
				1.00356
				0.986674
				1.00228
				1.00372
				1.0171
				0.998349
				1.00482
				0.988193
				0.999538
				0.996078
				1.00284
				0.962845
				1.03314
				1.00286
				0.997671
				1.00307
				1.00274
				0.99882
				0.997645
				0.871856
				0.997657
				1.01264
				1.00559
				1.00189
				0.950065
				1.00352
				0.983033
				0.760217
				0.997372
				1.01505
				0.999296
				1.00032
				1.02537
				1.00355
				1.05462
				0.941475
				0.948455
				0.990843
				1.00444
				0.964769
				0.996726
				1.00324
				0.997239
				1.00208
				1.00258
				1.00189
				0.999245
				1.00102
				0.998239
				0.958483
				1.00171
				1.00584
				1.00124
				1.00258
				1.002
				0.965505
				0.970412
				0.910842
				0.976067
				0.998275
				1.00612
				1.00585
				1.00161
				1.00101
				1.00731
				1.00254
				1.00241
				0.958159
				0.995227
				1.03254
				1.00077
				0.993244
				0.997679
				1.00044
				0.999068
				0.99681
				0.956127
				0.675445
				1.00618
				1.00596
				1.01115
				1.00206
				0.999987
				0.998645
				0.998633
				0.991242
				1.01344
				1.01716
				0.804867
				1.00206
				0.973496
				0.976794
				1.0047
				0.999664
				1.01565
				1.00781
				1.00008
				1.03549
				0.995918
				1.00097
				0.954405
				1.00234
				1.00225
				0.963391
				0.940276
				0.988665
				1.0001
				1.00245
				0.99881
				0.997743
				0.999611
				1.00298
				1.00159
				0.962729
				0.998968
				0.994913
				0.990803
				0.996433
				0.948695
				0.995339
				0.852415
				1.01725
				0.999638
				0.997469
				0.99471
				1.00472
				1.00061
				1.00317
				0.996707
				0.998611
				0.987937
				1.00372
				0.999366
				0.940268
				0.99683
				1.00282
				1.00245
				0.997264
				0.997794
				1.02811
				0.971552
				0.999721
				0.996802
				1.00208
				0.998391
				0.790901
				1.00327
				0.997264
				0.999839
				1.0027
				0.985664
				1.00248
				0.948144
				0.974074
				1.00375
				0.996114
				1.00086
				0.884376
				1.00213
				1.00402
				1.00252
				1.00145
				0.982558
				1.00142
				0.955429
				0.983819
				0.979463
				1.00435
				0.99973
				1.00069
				1.0038
				0.996376
				1.00322
				1.01827
				1.00103
				0.973914
				1.00288
				1.00235
				0.999034
				0.968948
				0.999482
				0.997935
				0.994013
				1.00316
				1.01264
				0.99973
				1.00925
				0.99771
				0.999583
				1.00095
				0.9993
				0.998209
				0.996759
				1.00013
				0.991219
				1.00252
				1.00718
				0.999273
				1.00146
				0.985353
				0.99862
				1.00294
				0.977897
				1.011
				1.03427
				0.977536
				1.00311
				1.03706
				1.00392
				1.01501
				1.00226
				1.0077
				1.00819
				1.00859
				1.02929
				0.86163
				1.00404
				1.00319
				0.98879
				1.00025
				1.0022
				1.00352
				1.00138
				0.981727
				1.00347
				1.00212
				0.997214
				0.999353
				0.965117
				0.996324
				0.997188
				0.990602
				1.00392
				0.99818
				1.0021
				0.998367
				1.00064
				0.995386
				1.04262
				0.976374
				1.05312
				1.00056
				0.9992
				0.99652
				1.00178
				1.05784
				0.997388
				1.01201
				1.00364
				0.997329
				0.999126
				0.998332
				1.00123
				1.00904
				1.03824
				1.00581
				1.00394
				0.975143
				1.00147
				1.00443
				1.00393
				0.989201
				0.99754
				1.00783
				1.00129
				1.07089
				1.00921
				0.997839
				0.999136
				0.973054
				0.990633
				0.99645
				0.999497
				1.00194
				0.997425
				0.99955
				0.993492
				1.05245
				1.03439
				1.00053
				1.00588
				1.00439
				0.970217
				1.00363
				1.00063
				1.01526
				1.02918
				0.998552
				0.996862
				1.00232
				0.861069
				1.00128
				0.998352
				1.00136
				0.819793
				1.00471
				1.00202
				0.997773
				0.997137
				0.961919
				0.992292
				1.0022
				0.975836
				0.997184
				1.00182
				0.999022
				1.0045
				0.998593
				1.00001
				0.999326
				1.00278
				1.05713
				1.00255
				1.02901
				1.01021
				1.05455
				1.04728
				0.817216
				0.998547
				0.998454
				0.997409
				0.991021
				0.994053
				0.935517
				0.996285
				0.997679
				1.00628
				1.00093
				1.03971
				1.00039
				1.0066
				1.03252
				0.790187
				1.03323
				0.757542
				1.00306
				0.993152
				0.963351
				0.996602
				0.998876
				1.00304
				0.961911
				0.848862
				0.700602
				0.996825
				1.00359
				0.99944
				0.998978
				1.00233
				1.00232
				0.93603
				1.03369
				0.989776
				1.00074
				0.989757
				0.999131
				0.702493
				0.996433
				1.00178
				1.00124
				1.00366
				1.00296
				0.997384
				1.00055
				1.00279
				1.0409
				1.00591
				0.991188
				1.02357
				0.99634
				0.939625
				1.00147
				1.01108
				1.00389
				1.00296
				1.00281
				1.00276
				0.999269
				0.969228
				1.00314
				0.99376
				1.0013
				1.00435
				1.00003
				1.00011
				0.997134
				1.00262
				1.01329
				1.00278
				1.00137
				1.00056
				0.997543
				1.00421
				0.997602
				0.999919
				1.03761
				1.00039
				1.01643
				1.03519
				1.00333
				0.963838
				1.00147
				1.00582
				1.00354
				0.991277
				0.835717
				0.972174
				0.996565
				1.02969
				1.00244
				1.00775
				1.00185
				0.999506
				0.912102
				1.02588
				1.0028
				0.995613
				1.00193
				0.999377
				0.998138
				1.00201
				1.00248
				1.04871
				0.978329
				0.934295
				0.952238
				1.00008
				0.997412
				0.906758
				0.99913
				1.00219
				1.06759
				1.0013
				0.649073
				0.705577
				0.999487
				0.852199
				0.999677
				1.00174
				0.986958
				1.00108
				1.0011
				1.00854
				0.99872
				0.733393
				1.00094
				0.997188
				0.995669
				0.868532
				0.995149
				1.04784
				1.05899
				0.974768
				1.00957
				1.01158
				0.976423
				0.997343
				1.00553
				1.00909
				0.999467
				1.00183
				1.0407
				1.00266
				1.04066
				0.987849
				0.972564
				0.868341
				1.00417
				0.999758
				1.0056
				1.00263
				0.993707
				1.0098
				1.00261
				0.997274
				0.999453
				0.985503
				1.00173
				1.00148
				1.00819
				0.999046
				1.01558
				1.00819
				1.00302
				1.0031
				1.00036
				1.0058
				0.998744
				1.00272
				0.996424
				1.00884
				0.783512
				1.00451
				1.00099
				1.00664
				0.997244
				1.00109
				1.00186
				1.00416
				0.99952
				0.999602
				0.99676
				1.00231
				0.889181
				0.921935
				1.00984
				1.01634
				1.00163
				1.00345
				1.00307
				1.00589
				1.00028
				1.02187
				0.991614
				1.01611
				1.01489
				0.996748
				0.9916
				1.00547
				0.99747
				0.981956
				0.99255
				0.96785
				0.998615
				1.00251
				0.993809
				1.00304
				0.997844
				1.04844
				0.996648
				0.637528
				0.987615
				0.999732
				1.00039
				0.99818
				1.01332
				1.00039
				0.966411
				1.00388
				0.587344
				1.00276
				1.00349
				1.00425
				0.993094
				1.01576
				0.99709
				1.00433
				0.996249
				0.999602
				0.997497
				1.00274
				0.999482
				1.03804
				1.0494
				0.99795
				0.976271
				1.01637
				1.00206
				1.00414
				0.996432
				0.938165
				1.005
				1.00228
				0.988259
				0.987404
				1.00198
				0.996154
				1.00203
				1.00093
				1.00616
				1.04045
				0.992116
				0.99762
				0.999573
				1.04432
				0.998871
				0.985314
				0.999011
				0.998908
				1.00143
				1.00083
				1.00236
				0.998006
				0.979248
				0.821643
				0.78729
				1.00003
				0.998293
				1.00581
				1.00419
				1.00312
				0.998449
				1.00044
				1.0042
				0.564623
				1.00084
				1.00261
				1.00332
				0.997675
				0.998845
				0.993955
				0.75464
				0.990984
				0.999041
				1.0118
				0.997652
				0.966928
				0.998447
				1.00203
				1.0013
				0.998231
				1.00161
				1.00109
				1.00385
				0.99732
				1.0009
				0.997006
				0.909264
				0.664963
				1.05232
				0.951632
				0.994953
				1.03044
				0.997458
				0.996422
				1.00268
				1.07673
				1.00155
				0.974522
				0.999279
				1.01112
				1.00185
				0.99698
				1.00047
				0.951355
				1.00472
				1.00412
				1.00835
				0.990954
				0.999172
				1.00671
				0.999949
				1.01474
				1.00498
				0.977772
				1.00205
				0.996577
				0.99591
				1.004
				1.00109
				1.00133
				0.999229
				1.00101
				0.922817
				1.00537
				1.0228
				0.997205
				1.004
				1.00795
				1.00263
				1.00638
				0.997373
				1.00417
				0.998887
				1.00002
				0.993689
				1.00639
				0.957872
				1.00591
				0.999416
				1.00343
				1.0117
				0.938193
				1.00105
				0.987868
				0.996236
				0.996103
				1.01597
				1.00275
				1.00452
				1.00297
				0.991948
				0.999501
				0.997893
				0.981026
				1.00053
				0.990604
				0.997833
				1.00816
				0.997999
				0.578805
				1.00283
				0.950073
				0.978926
				1.00554
				0.771077
				1.07343
				0.99408
				1.00038
				0.721053
				0.997191
				0.997134
				0.999499
				0.999582
				0.997913
				0.962046
				0.959178
				1.0003
				1.00112
				0.982857
				1.00624
				1.00094
				1.00009
				1.00384
				1.00345
				0.987921
				0.997033
				1.00067
				1.03366
				1.04146
				1.07037
				0.963191
				1.00244
				1.05727
				0.994274
				1.00137
				1.00197
				1.00219
				0.996247
				0.985365
				0.996738
				0.998255
				0.99081
				0.98569
				1.00508
				1.00375
				0.93571
				0.998852
				0.982382
				0.998403
				1.00197
				0.994087
				1.03719
				1.00181
				1.01789
				1.00218
				0.998703
				1.00221
				0.998291
				1.01701
				0.997651
				0.998158
				1.00946
				1.00327
				0.98535
				1.0027
				0.938742
				1.03713
				1.00328
				1.00194
				0.999381
				0.996834
				0.989613
				0.967028
				1.05303
				1.00275
				1.03139
				1.00125
				0.992228
				1.0009
				1.02507
				1.00472
				1.04808
				0.860731
				0.998004
				0.991454
				0.996093
				1.01033
				1.01114
				1.00144
				0.998544
				0.991226
				1.00554
				1.003
				0.980074
				0.78139
				1.00164
				0.996982
				1.06198
				0.996454
				1.00213
				0.993372
				1.006
				1.00217
				1.00058
				1.01153
				1.02046
				0.995999
				0.999719
				1.02468
				0.996966
				0.997938
				1.01819
				0.997638
				0.998467
				1.00017
				1.00203
				0.822154
				1.00222
				0.987883
				1.03929
				0.998635
				1.00097
				1.00231
				1.00404
				0.994692
				1.00222
				1.00447
				0.99975
				1.05247
				0.999247
				0.962967
				1.00224
				1.00253
				0.998581
				0.998034
				0.99706
				1.00605
				1.00314
				0.9915
				0.809425
				1.00193
				1.0031
				1.01016
				1.00814
				0.998292
				0.997182
				1.00225
				0.991501
				1.00365
				1.01313
				0.990101
				0.989559
				1.02698
				0.998068
				0.977358
				0.974636
				0.999096
				1.00226
				0.995522
				1.00303
				0.986401
				0.96769
				0.975634
				1.00347
				1.0389
				1.00262
				0.991352
				0.986331
				1.00238
				1.0477
				0.999835
				1.04151
				0.935887
				1.00461
				1.0047
				0.998058
				0.868833
				0.998799
				0.997794
				1.00145
				0.92915
				1.00322
				0.927624
				1.00305
				0.964327
				0.99754
				1.00243
				1.00353
				0.997844
				0.986026
				1.00112
				1.00611
				1.00208
				0.95084
				1.00482
				0.724138
				0.997441
				1.00275
				1.003
				1.00128
				0.915442
				1.00101
				1.00091
				0.993281
				1.01562
				1.00185
				1.00233
				1.02038
				0.998353
				1.06232
				1.00284
				0.700154
				1.00254
				0.956781
				0.980794
				0.996882
				0.995961
				0.978637
				0.90339
				0.913309
				0.982349
				1.00241
				0.996224
				1.00221
				1.0003
				1.06179
				0.915942
				0.989093
				1.00191
				0.997589
				1.00222
				1.00297
				0.995731
				0.999338
				1.0659
				1.01294
				0.998426
				1.06909
				1.04305
				1.00068
				0.996562
				1.05568
				0.933095
				0.985311
				0.998079
				1.0007
				1.00195
				1.00539
				0.980577
				1.01104
				1.02249
				1.00262
				1.00165
				1.01389
				1.00132
				1.00244
				0.955381
				0.998056
				1.0038
				1.00144
				1.00192
				0.998154
				0.995082
				1.00222
				1.05212
				1.02889
				0.998302
				1.0031
				0.825594
				0.945392
				1.00221
				0.882889
				1.00219
				0.997335
				0.997824
				1.00082
				1.00278
				0.999315
				0.970676
				1.00048
				1.00239
				0.992825
				1.00104
				0.999832
				1.00408
				0.997404
				1.00608
				1.00193
				0.993991
				1.00294
				1.04228
				1.00072
				0.988611
				0.996903
				1.05462
				1.00695
				0.997611
				1.04622
				0.996727
				1.00372
				1.02822
				0.999618
				1.00372
				1.00702
				1.00517
				0.997461
				1.00465
				0.997612
				1.00337
				1.00275
				0.999266
				1.04432
				1.00347
				1.00339
				0.995994
				1.00183
				1.04117
				0.998316
				0.886763
				1.05894
				1.04272
				1.00137
				0.998137
				0.994667
				1.00392
				0.980675
				0.999163
				1.00309
				0.996581
				1.01778
				1.00233
				1.00498
				1.00089
				1.01215
				1.04615
				1.00211
				0.999679
				0.997501
				0.959461
				0.998471
				0.993144
				1.00723
				1.00249
				0.999271
				1.00269
				1.00469
				0.99956
				0.869053
				1.00099
				0.894165
				1.00121
				0.880918
				0.757795
				1.00143
				1.00172
				0.699316
				0.996259
				0.99898
				0.997565
				0.921825
				1.00323
				1.00644
				1.00394
				1.00282
				1.00279
				1.00181
				0.996696
				0.77111
				0.857098
				1.00144
				1.07131
				1.01287
				0.998191
				1.0022
				1.00467
				0.986823
				1.01112
				0.996218
				0.980448
				0.916761
				1.00195
				1.03103
				1.00234
				1.00264
				1.00742
				0.947678
				0.996559
				1.00397
				0.998791
				0.982896
				1.00414
				0.998832
				0.999853
				1.0031
				0.997522
				1.01346
				1.01102
				0.998213
				0.996538
				1.00398
				1.00848
				1.00106
				1.00216
				0.990709
				1.00473
				1.01132
				0.999843
				1.02888
				0.999872
				0.99581
				0.996235
				0.988944
				1.00179
				1.06778
				0.998445
				0.981504
				0.992964
				0.999671
				0.998868
				1.01121
				1.00139
				1.01192
				1.00404
				0.99977
				1.02029
				1.00112
				1.00581
				0.997403
				0.998001
				1.00222
				0.992659
				1.00083
				1.03575
				1.00538
				1.00197
				1.06816
				1.00305
				1.00205
				1.00197
				1.00135
				0.992774
				1.03851
				1.00015
				0.976947
				1.0205
				0.999342
				0.969861
				0.997822
				0.998786
				1.00875
				0.898429
				0.996174
				0.952881
				0.9985
				1.00513
				0.999757
				1.00193
				1.0012
				0.854223
				1.00206
				0.999516
				0.995545
				0.998398
				1.0026
				1.00428
				1.03382
				1.00166
				1.0098
				1.00308
				0.98843
				1.00343
				0.998822
				1.00709
				1.00182
				1.04036
				1.00392
				0.997045
				1.00655
				0.962147
				1.00329
				0.999174
				0.940866
				1.0167
				1.00112
				0.999419
				0.968441
				0.998079
				1.00294
				1.01786
				1.00215
				1.01219