<VTKFile type="UnstructuredGrid" version="0.1" byte_order="LittleEndian">
<UnstructuredGrid>
	<Piece NumberOfPoints="80" NumberOfCells="128">
		<CellData Scalars="density" Vectors="velocity">
			<DataArray type="Float64" Name="density" Format="ascii">
				0.991803
				0.955508
				0.977216
				0.979157
				0.922143
				0.980851
				0.856877
				0.947204
				0.852435
				0.921259
				0.931138
				0.945356
				1.02103
				0.993516
				1.07561
				1.03172
				1.07559
				1.04653
				1.02088
				1.03164
				0.93075
				0.993324
				0.851588
				0.944946
				0.855734
				0.920525
				0.921363
				0.946361
				0.978913
				0.979916
				0.905021
				0.973139
				0.985986
				0.930009
				0.997439
				1.0022
				0.992946
				0.988081
				0.988525
				0.980531
				0.991061
				0.978211
				0.999759
				0.98914
				1.00885
				1.00639
				1.01425
				1.01854
				1.01424
				1.01765
				1.0088
				1.01851
				0.99968
				1.00632
				0.990961
				0.989003
				0.988438
				0.978044
				0.992926
				0.980433
				0.997313
				0.988089
				0.986549
				1.00522
				0.99433
				0.997815
				1.00049
				0.999862
				0.99791
				0.999978
				0.996343
				0.998708
				0.997442
				0.998232
				1.00057
				0.99911
				1.00369
				1.00075
				1.00554
				1.00193
				1.00554
				1.00208
				1.00368
				1.00193
				1.00056
				1.00074
				0.997439
				0.999111
				0.99637
				0.998253
				0.997976
				0.99877
				1.00044
				1.00012
				0.99434
				0.99978
				0.997638
				0.989647
				0.999089
				1.00117
				0.999531
				0.998689
				0.999786
				0.999145
				1.00018
				0.999772
				1.00061
				1.00051
				1.00095
				1.00111
				1.00115
				1.00139
				1.00115
				1.00133
				1.00096
				1.00139
				1.00063
				1.00112
				1.0002
				1.00053
				0.999817
				0.999805
				0.999573
				0.999196
				0.999118
				0.998764
				0.997172
				1.00164
			</DataArray>
			<DataArray type="Float64" Name="mach-number" Format="ascii">
				0.0820693
				0.0734414
				0.262909
				0.210673
				0.45662
				0.367592
				0.619402
				0.502225
				0.648704
				0.565382
				0.518801
				0.518546
				0.332698
				0.4042
				0.151206
				0.282631
				0.151481
				0.247527
				0.333142
				0.282896
				0.519568
				0.404637
				0.650212
				0.519261
				0.621513
				0.566539
				0.458717
				0.503605
				0.265161
				0.368812
				0.0964953
				0.216319
				0.301555
				0.153538
				0.385509
				0.360259
				0.407917
				0.403901
				0.416764
				0.43242
				0.40872
				0.439162
				0.383314
				0.413344
				0.356776
				0.367954
				0.343072
				0.332761
				0.343133
				0.337451
				0.356928
				0.332893
				0.383551
				0.368216
				0.409011
				0.413743
				0.416991
				0.439615
				0.407922
				0.432698
				0.385422
				0.403786
				0.301468
				0.361484
				0.334346
				0.322009
				0.380107
				0.376927
				0.38589
				0.382336
				0.389952
				0.38506
				0.387766
				0.385886
				0.379778
				0.382361
				0.371256
				0.377245
				0.365571
				0.373764
				0.365595
				0.375248
				0.371303
				0.373775
				0.379833
				0.377258
				0.387792
				0.38236
				0.389887
				0.385841
				0.385674
				0.384924
				0.37973
				0.382055
				0.337542
				0.376644
				0.376366
				0.325766
				0.383582
				0.396769
				0.382705
				0.384097
				0.381907
				0.383467
				0.380722
				0.381997
				0.379547
				0.380291
				0.378737
				0.378987
				0.378401
				0.378553
				0.378395
				0.379732
				0.378719
				0.378548
				0.379515
				0.378968
				0.38067
				0.380248
				0.381832
				0.381919
				0.382607
				0.383343
				0.383519
				0.383868
				0.375023
				0.397768
			</DataArray>
			<DataArray type="Float64" Name="pressure" Format="ascii">
				5.03076
				5.00433
				4.88414
				4.96456
				4.49263
				4.88206
				4.0417
				4.61801
				3.99438
				4.44246
				4.4903
				4.6055
				5.08352
				4.92866
				5.46728
				5.17837
				5.46697
				5.24984
				5.08238
				5.17784
				4.48768
				4.92741
				3.98892
				4.60293
				4.03425
				4.43794
				4.48638
				4.61307
				4.88059
				4.87915
				5.05356
				4.95329
				4.95504
				4.95568
				4.93368
				4.94352
				4.89235
				4.8709
				4.86085
				4.81188
				4.87902
				4.79477
				4.9418
				4.86934
				5.0071
				4.989
				5.04649
				5.07471
				5.04638
				5.08773
				5.00678
				5.07447
				4.94125
				4.98845
				4.87829
				4.86839
				4.86019
				4.79367
				4.89221
				4.81138
				4.93416
				4.87162
				4.95059
				4.94599
				4.9562
				4.97332
				4.94944
				4.95216
				4.93147
				4.94577
				4.92108
				4.93808
				4.92885
				4.93495
				4.95058
				4.94084
				4.97221
				4.95189
				4.98503
				4.95985
				4.985
				4.96088
				4.97213
				4.95983
				4.95049
				4.95187
				4.92883
				4.94085
				4.92127
				4.93509
				4.93197
				4.93848
				4.94969
				4.94662
				4.95196
				4.95348
				4.93842
				4.93437
				4.94035
				4.94236
				4.94337
				4.93718
				4.94506
				4.94066
				4.94776
				4.94502
				4.95081
				4.95012
				4.95315
				4.95424
				4.95456
				4.95621
				4.95458
				4.95591
				4.9532
				4.95623
				4.9509
				4.95431
				4.9479
				4.95026
				4.94528
				4.94524
				4.94366
				4.94099
				4.94053
				4.93763
				4.93787
				4.94343
			</DataArray>
			<DataArray type="Float64" Name="velocity" NumberOfComponents="3" Format="ascii">
				0.211966 -0.0538544 0.0 
				0.198598 0.0103251 0.0 
				0.60529 -0.342462 0.0 
				0.541741 -0.146848 0.0 
				1.12623 -0.392102 0.0 
				0.940412 -0.239186 0.0 
				1.5871 -0.120876 0.0 
				1.30326 -0.152045 0.0 
				1.61883 0.374198 0.0 
				1.46431 0.117518 0.0 
				1.16444 0.679142 0.0 
				1.29338 0.401373 0.0 
				0.635747 0.606098 0.0 
				0.953136 0.475622 0.0 
				0.319248 0.246536 0.0 
				0.680441 0.313536 0.0 
				0.319475 -0.247428 0.0 
				0.655969 -0.000368955 0.0 
				0.636389 -0.607077 0.0 
				0.680864 -0.314276 0.0 
				1.16599 -0.680221 0.0 
				0.954065 -0.476267 0.0 
				1.62232 -0.374848 0.0 
				1.29518 -0.401597 0.0 
				1.59204 0.122083 0.0 
				1.46724 -0.116526 0.0 
				1.13057 0.39529 0.0 
				1.30646 0.15474 0.0 
				0.60837 0.347354 0.0 
				0.942916 0.243097 0.0 
				0.261869 0.0649311 0.0 
				0.560568 0.138628 0.0 
				0.797394 -0.0628628 0.0 
				0.419335 0.00459934 0.0 
				1.01259 -0.0617885 0.0 
				0.943451 -0.0785576 0.0 
				1.07018 -0.0500012 0.0 
				1.05793 -0.0817459 0.0 
				1.09349 -0.00363939 0.0 
				1.13273 -0.0400982 0.0 
				1.07117 0.0628775 0.0 
				1.14953 0.0452531 0.0 
				1.00402 0.0933547 0.0 
				1.07708 0.131979 0.0 
				0.937788 0.0708476 0.0 
				0.958681 0.14342 0.0 
				0.905235 0.0203788 0.0 
				0.875162 0.0803858 0.0 
				0.905388 -0.0206116 0.0 
				0.892766 -0.000221823 0.0 
				0.938171 -0.0710003 0.0 
				0.875466 -0.0808063 0.0 
				1.00464 -0.0933141 0.0 
				0.959315 -0.143729 0.0 
				1.07194 -0.0624306 0.0 
				1.07811 -0.131903 0.0 
				1.09405 0.00475303 0.0 
				1.15072 -0.0443039 0.0 
				1.07011 0.0516323 0.0 
				1.13338 0.0420613 0.0 
				1.01239 0.0631295 0.0 
				1.05749 0.084309 0.0 
				0.79622 0.0671985 0.0 
				0.945262 0.0812222 0.0 
				0.883217 0.00322272 0.0 
				0.850606 0.00195135 0.0 
				1.00029 -0.00856805 0.0 
				0.992519 0.00657388 0.0 
				1.01499 -0.00696518 0.0 
				1.00607 0.00366859 0.0 
				1.02539 0.00721818 0.0 
				1.01307 0.00845813 0.0 
				1.01956 0.0268826 0.0 
				1.01502 0.0187343 0.0 
				0.998898 0.0356483 0.0 
				1.00577 0.0248976 0.0 
				0.977281 0.0290233 0.0 
				0.99266 0.0224317 0.0 
				0.963023 0.0118424 0.0 
				0.983869 0.0133516 0.0 
				0.963087 -0.0118223 0.0 
				0.987893 1.94543e-05 0.0 
				0.977407 -0.0289358 0.0 
				0.983897 -0.0132908 0.0 
				0.999046 -0.0354335 0.0 
				0.992696 -0.0223179 0.0 
				1.01964 -0.0264824 0.0 
				1.00577 -0.0247018 0.0 
				1.02523 -0.0066199 0.0 
				1.01491 -0.018449 0.0 
				1.01443 0.00763188 0.0 
				1.01272 -0.00807807 0.0 
				0.999341 0.009208 0.0 
				1.00535 -0.00305205 0.0 
				0.89126 -0.00547556 0.0 
				0.991956 -0.00485003 0.0 
				0.990756 -0.00842205 0.0 
				0.860688 -9.43681e-05 0.0 
				1.00925 -0.00277687 0.0 
				1.04306 0.00439603 0.0 
				1.00703 -0.000629382 0.0 
				1.01048 0.000306306 0.0 
				1.00497 0.0015085 0.0 
				1.00894 0.0038571 0.0 
				1.00193 0.00277364 0.0 
				1.0052 0.00561038 0.0 
				0.998926 0.00280853 0.0 
				1.00085 0.00549391 0.0 
				0.996864 0.00171473 0.0 
				0.997548 0.00378178 0.0 
				0.996023 0.000287074 0.0 
				0.996468 0.00140676 0.0 
				0.996007 -0.000233391 0.0 
				0.999571 3.95997e-05 0.0 
				0.99682 -0.0016635 0.0 
				0.996455 -0.00131892 0.0 
				0.998843 -0.00276509 0.0 
				0.997499 -0.00367763 0.0 
				1.0018 -0.00275235 0.0 
				1.00075 -0.00537652 0.0 
				1.00478 -0.00154046 0.0 
				1.005 -0.00550461 0.0 
				1.00678 0.000495623 0.0 
				1.00863 -0.00379702 0.0 
				1.00909 0.00244979 0.0 
				1.00989 -0.00021856 0.0 
				0.987387 0.00929337 0.0 
				1.04555 -0.0051282 0.0 
			</DataArray>
		</CellData>
		<Points>
		<DataArray type="Float64" NumberOfComponents="3" Format="ascii">
			0.5 0 0.0 
			0.46194 0.191342 0.0 
			0.353553 0.353553 0.0 
			0.191342 0.46194 0.0 
			-2.18557e-08 0.5 0.0 
			-0.191342 0.46194 0.0 
			-0.353553 0.353553 0.0 
			-0.46194 0.191342 0.0 
			-0.5 -4.37114e-08 0.0 
			-0.46194 -0.191342 0.0 
			-0.353553 -0.353553 0.0 
			-0.191342 -0.46194 0.0 
			6.55671e-08 -0.5 0.0 
			0.191342 -0.46194 0.0 
			0.353553 -0.353553 0.0 
			0.46194 -0.191342 0.0 
			0.884503 0.175939 0.0 
			0.749846 0.501031 0.0 
			0.501031 0.749846 0.0 
			0.175939 0.884503 0.0 
			-0.175939 0.884503 0.0 
			-0.501031 0.749846 0.0 
			-0.749846 0.501031 0.0 
			-0.884503 0.175939 0.0 
			-0.884503 -0.175939 0.0 
			-0.749846 -0.501031 0.0 
			-0.501031 -0.749846 0.0 
			-0.175939 -0.884503 0.0 
			0.175939 -0.884503 0.0 
			0.501031 -0.749846 0.0 
			0.749846 -0.501031 0.0 
			0.884503 -0.175938 0.0 
			2.20148 0 0.0 
			2.0339 0.842468 0.0 
			1.55668 1.55668 0.0 
			0.842468 2.0339 0.0 
			-9.62295e-08 2.20148 0.0 
			-0.842468 2.0339 0.0 
			-1.55668 1.55668 0.0 
			-2.0339 0.842468 0.0 
			-2.20148 -1.92459e-07 0.0 
			-2.0339 -0.842468 0.0 
			-1.55668 -1.55668 0.0 
			-0.842468 -2.0339 0.0 
			2.88689e-07 -2.20148 0.0 
			0.842468 -2.0339 0.0 
			1.55668 -1.55668 0.0 
			2.0339 -0.842468 0.0 
			6.28184 1.24954 0.0 
			5.32549 3.55838 0.0 
			3.55838 5.32549 0.0 
			1.24954 6.28184 0.0 
			-1.24954 6.28184 0.0 
			-3.55838 5.32549 0.0 
			-5.32549 3.55838 0.0 
			-6.28184 1.24954 0.0 
			-6.28184 -1.24954 0.0 
			-5.32549 -3.55838 0.0 
			-3.55838 -5.32549 0.0 
			-1.24954 -6.28184 0.0 
			1.24954 -6.28184 0.0 
			3.55838 -5.32549 0.0 
			5.32549 -3.55838 0.0 
			6.28184 -1.24953 0.0 
			20.0001 0 0.0 
			18.4777 7.6537 0.0 
			14.1422 14.1422 0.0 
			7.6537 18.4777 0.0 
			-8.74231e-07 20.0001 0.0 
			-7.6537 18.4777 0.0 
			-14.1422 14.1422 0.0 
			-18.4777 7.65369 0.0 
			-20.0001 -1.74846e-06 0.0 
			-18.4777 -7.6537 0.0 
			-14.1422 -14.1422 0.0 
			-7.65369 -18.4777 0.0 
			2.62269e-06 -20.0001 0.0 
			7.6537 -18.4777 0.0 
			14.1422 -14.1422 0.0 
			18.4777 -7.65369 0.0 
		</DataArray>
		</Points>
		<Cells>
			<DataArray type="UInt32" Name="connectivity" Format="ascii">
				0 16 1 
				0 31 16 
				1 17 2 
				1 16 17 
				2 18 3 
				2 17 18 
				3 19 4 
				3 18 19 
				4 20 5 
				4 19 20 
				5 21 6 
				5 20 21 
				6 22 7 
				6 21 22 
				7 23 8 
				7 22 23 
				8 24 9 
				8 23 24 
				9 25 10 
				9 24 25 
				10 26 11 
				10 25 26 
				11 27 12 
				11 26 27 
				12 28 13 
				12 27 28 
				13 29 14 
				13 28 29 
				14 30 15 
				14 29 30 
				15 31 0 
				15 30 31 
				16 32 33 
				16 31 32 
				17 33 34 
				17 16 33 
				18 34 35 
				18 17 34 
				19 35 36 
				19 18 35 
				20 36 37 
				20 19 36 
				21 37 38 
				21 20 37 
				22 38 39 
				22 21 38 
				23 39 40 
				23 22 39 
				24 40 41 
				24 23 40 
				25 41 42 
				25 24 41 
				26 42 43 
				26 25 42 
				27 43 44 
				27 26 43 
				28 44 45 
				28 27 44 
				29 45 46 
				29 28 45 
				30 46 47 
				30 29 46 
				31 47 32 
				31 30 47 
				32 48 33 
				32 63 48 
				33 49 34 
				33 48 49 
				34 50 35 
				34 49 50 
				35 51 36 
				35 50 51 
				36 52 37 
				36 51 52 
				37 53 38 
				37 52 53 
				38 54 39 
				38 53 54 
				39 55 40 
				39 54 55 
				40 56 41 
				40 55 56 
				41 57 42 
				41 56 57 
				42 58 43 
				42 57 58 
				43 59 44 
				43 58 59 
				44 60 45 
				44 59 60 
				45 61 46 
				45 60 61 
				46 62 47 
				46 61 62 
				47 63 32 
				47 62 63 
				48 64 65 
				48 63 64 
				49 65 66 
				49 48 65 
				50 66 67 
				50 49 66 
				51 67 68 
				51 50 67 
				52 68 69 
				52 51 68 
				53 69 70 
				53 52 69 
				54 70 71 
				54 53 70 
				55 71 72 
				55 54 71 
				56 72 73 
				56 55 72 
				57 73 74 
				57 56 73 
				58 74 75 
				58 57 74 
				59 75 76 
				59 58 75 
				60 76 77 
				60 59 76 
				61 77 78 
				61 60 77 
				62 78 79 
				62 61 78 
				63 79 64 
				63 62 79 
			</DataArray>
			<DataArray type="UInt32" Name="offsets" Format="ascii">
				3
				6
				9
				12
				15
				18
				21
				24
				27
				30
				33
				36
				39
				42
				45
				48
				51
				54
				57
				60
				63
				66
				69
				72
				75
				78
				81
				84
				87
				90
				93
				96
				99
				102
				105
				108
				111
				114
				117
				120
				123
				126
				129
				132
				135
				138
				141
				144
				147
				150
				153
				156
				159
				162
				165
				168
				171
				174
				177
				180
				183
				186
				189
				192
				195
				198
				201
				204
				207
				210
				213
				216
				219
				222
				225
				228
				231
				234
				237
				240
				243
				246
				249
				252
				255
				258
				261
				264
				267
				270
				273
				276
				279
				282
				285
				288
				291
				294
				297
				300
				303
				306
				309
				312
				315
				318
				321
				324
				327
				330
				333
				336
				339
				342
				345
				348
				351
				354
				357
				360
				363
				366
				369
				372
				375
				378
				381
				384
			</DataArray>
			<DataArray type="Int32" Name="types" Format="ascii">
				5
				5
				5
				5
				5
				5
				5
				5
				5
				5
				5
				5
				5
				5
				5
				5
				5
				5
				5
				5
				5
				5
				5
				5
				5
				5
				5
				5
				5
				5
				5
				5
				5
				5
				5
				5
				5
				5
				5
				5
				5
				5
				5
				5
				5
				5
				5
				5
				5
				5
				5
				5
				5
				5
				5
				5
				5
				5
				5
				5
				5
				5
				5
				5
				5
				5
				5
				5
				5
				5
				5
				5
				5
				5
				5
				5
				5
				5
				5
				5
				5
				5
				5
				5
				5
				5
				5
				5
				5
				5
				5
				5
				5
				5
				5
				5
				5
				5
				5
				5
				5
				5
				5
				5
				5
				5
				5
				5
				5
				5
				5
				5
				5
				5
				5
				5
				5
				5
				5
				5
				5
				5
				5
				5
				5
				5
				5
				5
			</DataArray>
		</Cells>
	</Piece>
</UnstructuredGrid>
</VTKFile>