<VTKFile type="UnstructuredGrid" version="0.1" byte_order="LittleEndian">
<UnstructuredGrid>
	<Piece NumberOfPoints="80" NumberOfCells="128">
		<CellData Scalars="density" Vectors="velocity">
			<DataArray type="Float64" Name="density" Format="ascii">
				1.02264
				1.01056
				1.01336
				1.00334
				0.951249
				0.99703
				0.875016
				0.946809
				0.864619
				0.915569
				0.940407
				0.947249
				1.02376
				1.00528
				1.0631
				1.0507
				1.06032
				1.06533
				1.01439
				1.04598
				0.91802
				0.993343
				0.810592
				0.920297
				0.777151
				0.857229
				0.857492
				0.863613
				0.947253
				0.930785
				1.00109
				0.986148
				0.996498
				1.00865
				1.00919
				1.01304
				1.00219
				1.00462
				0.994332
				0.988198
				0.994202
				0.977245
				1.00214
				0.984959
				1.01173
				1.00388
				1.01662
				1.01946
				1.0148
				1.02394
				1.00598
				1.01559
				0.991315
				0.994737
				0.977551
				0.968119
				0.974003
				0.952088
				0.982173
				0.96186
				0.993411
				0.987119
				1.002
				1.00836
				0.996007
				0.997545
				1.00123
				1.00032
				1.00003
				1.00085
				0.999012
				1.0007
				0.999558
				1.00041
				1.00164
				1.00082
				1.00384
				1.00177
				1.00488
				1.00253
				1.00435
				1.0027
				1.00212
				1.00204
				0.998253
				1.00046
				0.994332
				0.998264
				0.993066
				0.996654
				0.995706
				0.99694
				1.0007
				0.998493
				0.998102
				0.998117
				0.998298
				0.99523
				0.9997
				1.00147
				0.999566
				1.00007
				0.99941
				0.999671
				0.999565
				0.999512
				0.999949
				0.999783
				1.00034
				1.00029
				1.00063
				1.00072
				1.00078
				1.00099
				1.00082
				1.00103
				1.00076
				1.00085
				1.00059
				1.00042
				1.00033
				0.999852
				1.00001
				0.999316
				0.999603
				0.998818
				0.998441
				0.999552
			</DataArray>
			<DataArray type="Float64" Name="mach-number" Format="ascii">
				0.0978686
				0.145012
				0.248256
				0.207185
				0.455025
				0.36573
				0.628883
				0.509674
				0.65802
				0.577424
				0.518138
				0.523136
				0.320506
				0.395587
				0.127109
				0.254122
				0.136251
				0.15317
				0.337879
				0.263848
				0.553292
				0.414499
				0.745615
				0.560901
				0.793764
				0.655406
				0.626658
				0.625358
				0.413776
				0.482757
				0.204046
				0.312397
				0.318754
				0.203854
				0.384793
				0.340735
				0.398027
				0.384755
				0.412854
				0.421684
				0.411279
				0.442952
				0.38687
				0.422437
				0.356683
				0.371068
				0.335198
				0.32096
				0.338486
				0.271191
				0.365074
				0.327612
				0.401472
				0.385319
				0.432342
				0.447404
				0.432887
				0.4773
				0.39778
				0.449027
				0.350622
				0.384906
				0.293568
				0.321034
				0.372302
				0.350461
				0.392655
				0.384103
				0.390199
				0.386151
				0.390591
				0.38654
				0.387183
				0.385248
				0.379662
				0.381685
				0.372243
				0.377504
				0.368901
				0.374721
				0.369743
				0.373202
				0.373431
				0.374512
				0.382062
				0.377609
				0.390297
				0.382213
				0.390638
				0.385005
				0.379413
				0.382718
				0.36221
				0.375471
				0.331863
				0.364447
				0.374581
				0.355783
				0.380414
				0.381391
				0.381225
				0.381405
				0.381411
				0.382376
				0.381033
				0.382117
				0.380252
				0.381015
				0.37947
				0.379662
				0.378924
				0.378708
				0.378754
				0.378012
				0.378902
				0.378104
				0.379335
				0.378723
				0.380022
				0.379816
				0.380821
				0.380984
				0.381655
				0.38187
				0.382386
				0.382446
				0.37742
				0.385765
			</DataArray>
			<DataArray type="Float64" Name="pressure" Format="ascii">
				5.18555
				5.08446
				5.10583
				5.09363
				4.65682
				4.9673
				4.12787
				4.60098
				4.04119
				4.39238
				4.52761
				4.60043
				5.09375
				4.99086
				5.37956
				5.30275
				5.35961
				5.41533
				5.02766
				5.27054
				4.37556
				4.91011
				3.68883
				4.42428
				3.49377
				4.02469
				4.03006
				4.06655
				4.64266
				4.5037
				5.04302
				4.89368
				5.00924
				5.07757
				5.02045
				5.0751
				4.9645
				4.9871
				4.9084
				4.8705
				4.90643
				4.79493
				4.96171
				4.84556
				5.02794
				4.974
				5.06259
				5.08134
				5.05026
				5.1264
				4.98846
				5.05441
				4.88769
				4.91098
				4.79203
				4.73125
				4.76743
				4.62721
				4.82753
				4.69641
				4.91133
				4.86878
				4.98137
				5.01793
				4.95333
				4.95665
				4.95432
				4.95235
				4.94682
				4.95241
				4.93977
				4.95124
				4.94354
				4.94931
				4.95796
				4.95218
				4.97319
				4.95872
				4.98034
				4.96398
				4.97662
				4.96529
				4.96125
				4.96065
				4.93455
				4.94965
				4.90746
				4.93443
				4.89868
				4.92327
				4.91718
				4.92503
				4.95051
				4.93596
				4.96153
				4.94162
				4.94263
				4.94503
				4.94457
				4.95232
				4.94355
				4.947
				4.9425
				4.94428
				4.94357
				4.94319
				4.94623
				4.94507
				4.94896
				4.94859
				4.95091
				4.95156
				4.95195
				4.95345
				4.95226
				4.95371
				4.95184
				4.95243
				4.95066
				4.94946
				4.94889
				4.94554
				4.94662
				4.94179
				4.9439
				4.93829
				4.94283
				4.93954
			</DataArray>
			<DataArray type="Float64" Name="velocity" NumberOfComponents="3" Format="ascii">
				0.224337 0.132926 0.0 
				0.311844 0.225556 0.0 
				0.600535 -0.27221 0.0 
				0.551284 -0.0342387 0.0 
				1.11914 -0.408121 0.0 
				0.938282 -0.229312 0.0 
				1.60856 -0.156746 0.0 
				1.31037 -0.224047 0.0 
				1.64385 0.361999 0.0 
				1.49579 0.0446101 0.0 
				1.16599 0.670832 0.0 
				1.31372 0.367288 0.0 
				0.621223 0.574136 0.0 
				0.936653 0.458648 0.0 
				0.273355 0.199341 0.0 
				0.613761 0.282102 0.0 
				0.278621 -0.231823 0.0 
				0.408402 -0.013075 0.0 
				0.6463 -0.611923 0.0 
				0.629203 -0.308551 0.0 
				1.23443 -0.720377 0.0 
				0.976114 -0.485965 0.0 
				1.8375 -0.406888 0.0 
				1.40444 -0.380778 0.0 
				1.97663 0.241794 0.0 
				1.68017 0.022374 0.0 
				1.45722 0.67852 0.0 
				1.53746 0.462903 0.0 
				0.835911 0.689954 0.0 
				1.10491 0.598246 0.0 
				0.371349 0.394626 0.0 
				0.682075 0.461285 0.0 
				0.845597 0.00385152 0.0 
				0.532874 0.0944505 0.0 
				1.01542 -0.0121823 0.0 
				0.902092 -0.0228048 0.0 
				1.04788 -0.0253422 0.0 
				1.0123 -0.0637726 0.0 
				1.08527 0.0120079 0.0 
				1.10648 -0.0516892 0.0 
				1.0779 0.082438 0.0 
				1.15998 0.0472944 0.0 
				1.01135 0.120872 0.0 
				1.09635 0.164581 0.0 
				0.935259 0.102195 0.0 
				0.957786 0.194347 0.0 
				0.884027 0.0427431 0.0 
				0.838226 0.127391 0.0 
				0.892086 -0.0493585 0.0 
				0.717926 -0.00815654 0.0 
				0.956094 -0.105619 0.0 
				0.852634 -0.144363 0.0 
				1.04849 -0.115063 0.0 
				0.991124 -0.209438 0.0 
				1.13131 -0.0542342 0.0 
				1.15854 -0.165324 0.0 
				1.13163 0.059277 0.0 
				1.24502 0.00117491 0.0 
				1.03307 0.146842 0.0 
				1.16017 0.179562 0.0 
				0.908696 0.15864 0.0 
				0.981499 0.244309 0.0 
				0.765477 0.117789 0.0 
				0.822262 0.204717 0.0 
				0.982144 -0.0212796 0.0 
				0.92395 -0.026861 0.0 
				1.03347 -0.0044207 0.0 
				1.0111 -0.0163069 0.0 
				1.02685 0.00207912 0.0 
				1.01635 -0.00373368 0.0 
				1.02756 0.0148658 0.0 
				1.01731 0.00706632 0.0 
				1.01838 0.0299062 0.0 
				1.01376 0.0156534 0.0 
				0.998824 0.0351908 0.0 
				1.0044 0.0196698 0.0 
				0.979958 0.0273129 0.0 
				0.993619 0.0174675 0.0 
				0.971667 0.0111107 0.0 
				0.986543 0.0101966 0.0 
				0.973821 -0.00635712 0.0 
				0.982637 0.00200885 0.0 
				0.982892 -0.021534 0.0 
				0.985935 -0.00596926 0.0 
				1.00473 -0.0263629 0.0 
				0.993714 -0.012183 0.0 
				1.02585 -0.0132293 0.0 
				1.0054 -0.0112034 0.0 
				1.02648 0.0137013 0.0 
				1.01247 -0.00213692 0.0 
				0.997049 0.0340087 0.0 
				1.00647 0.00771305 0.0 
				0.952802 0.0284969 0.0 
				0.987737 0.00743565 0.0 
				0.875416 -0.009984 0.0 
				0.959463 -0.00783434 0.0 
				0.986177 -0.00408699 0.0 
				0.938363 -0.00223816 0.0 
				1.00103 -0.00272802 0.0 
				1.00349 -0.00572899 0.0 
				1.00313 -0.00222991 0.0 
				1.0037 -0.00378045 0.0 
				1.0036 -0.000804163 0.0 
				1.00618 -3.51575e-05 0.0 
				1.00263 0.000998971 0.0 
				1.00547 0.00287663 0.0 
				1.00065 0.00207722 0.0 
				1.00262 0.00464752 0.0 
				0.998673 0.00194744 0.0 
				0.999157 0.00452849 0.0 
				0.997293 0.00103538 0.0 
				0.996738 0.00292073 0.0 
				0.996876 -0.000436225 0.0 
				0.994966 0.000757249 0.0 
				0.997272 -0.00183649 0.0 
				0.995215 -0.00169934 0.0 
				0.998398 -0.00297917 0.0 
				0.996802 -0.00371396 0.0 
				1.00017 -0.003385 0.0 
				0.99959 -0.00451316 0.0 
				1.00223 -0.00277637 0.0 
				1.00255 -0.003722 0.0 
				1.00435 -0.00116993 0.0 
				1.00478 -0.00225824 0.0 
				1.0062 0.00136524 0.0 
				1.00619 -0.000775006 0.0 
				0.993599 0.00441448 0.0 
				1.01467 -0.00158138 0.0 
			</DataArray>
		</CellData>
		<Points>
		<DataArray type="Float64" NumberOfComponents="3" Format="ascii">
			0.5 0 0.0 
			0.46194 0.191342 0.0 
			0.353553 0.353553 0.0 
			0.191342 0.46194 0.0 
			-2.18557e-08 0.5 0.0 
			-0.191342 0.46194 0.0 
			-0.353553 0.353553 0.0 
			-0.46194 0.191342 0.0 
			-0.5 -4.37114e-08 0.0 
			-0.46194 -0.191342 0.0 
			-0.353553 -0.353553 0.0 
			-0.191342 -0.46194 0.0 
			6.55671e-08 -0.5 0.0 
			0.191342 -0.46194 0.0 
			0.353553 -0.353553 0.0 
			0.46194 -0.191342 0.0 
			0.884503 0.175939 0.0 
			0.749846 0.501031 0.0 
			0.501031 0.749846 0.0 
			0.175939 0.884503 0.0 
			-0.175939 0.884503 0.0 
			-0.501031 0.749846 0.0 
			-0.749846 0.501031 0.0 
			-0.884503 0.175939 0.0 
			-0.884503 -0.175939 0.0 
			-0.749846 -0.501031 0.0 
			-0.501031 -0.749846 0.0 
			-0.175939 -0.884503 0.0 
			0.175939 -0.884503 0.0 
			0.501031 -0.749846 0.0 
			0.749846 -0.501031 0.0 
			0.884503 -0.175938 0.0 
			2.20148 0 0.0 
			2.0339 0.842468 0.0 
			1.55668 1.55668 0.0 
			0.842468 2.0339 0.0 
			-9.62295e-08 2.20148 0.0 
			-0.842468 2.0339 0.0 
			-1.55668 1.55668 0.0 
			-2.0339 0.842468 0.0 
			-2.20148 -1.92459e-07 0.0 
			-2.0339 -0.842468 0.0 
			-1.55668 -1.55668 0.0 
			-0.842468 -2.0339 0.0 
			2.88689e-07 -2.20148 0.0 
			0.842468 -2.0339 0.0 
			1.55668 -1.55668 0.0 
			2.0339 -0.842468 0.0 
			6.28184 1.24954 0.0 
			5.32549 3.55838 0.0 
			3.55838 5.32549 0.0 
			1.24954 6.28184 0.0 
			-1.24954 6.28184 0.0 
			-3.55838 5.32549 0.0 
			-5.32549 3.55838 0.0 
			-6.28184 1.24954 0.0 
			-6.28184 -1.24954 0.0 
			-5.32549 -3.55838 0.0 
			-3.55838 -5.32549 0.0 
			-1.24954 -6.28184 0.0 
			1.24954 -6.28184 0.0 
			3.55838 -5.32549 0.0 
			5.32549 -3.55838 0.0 
			6.28184 -1.24953 0.0 
			20.0001 0 0.0 
			18.4777 7.6537 0.0 
			14.1422 14.1422 0.0 
			7.6537 18.4777 0.0 
			-8.74231e-07 20.0001 0.0 
			-7.6537 18.4777 0.0 
			-14.1422 14.1422 0.0 
			-18.4777 7.65369 0.0 
			-20.0001 -1.74846e-06 0.0 
			-18.4777 -7.6537 0.0 
			-14.1422 -14.1422 0.0 
			-7.65369 -18.4777 0.0 
			2.62269e-06 -20.0001 0.0 
			7.6537 -18.4777 0.0 
			14.1422 -14.1422 0.0 
			18.4777 -7.65369 0.0 
		</DataArray>
		</Points>
		<Cells>
			<DataArray type="UInt32" Name="connectivity" Format="ascii">
				0 16 1 
				0 31 16 
				1 17 2 
				1 16 17 
				2 18 3 
				2 17 18 
				3 19 4 
				3 18 19 
				4 20 5 
				4 19 20 
				5 21 6 
				5 20 21 
				6 22 7 
				6 21 22 
				7 23 8 
				7 22 23 
				8 24 9 
				8 23 24 
				9 25 10 
				9 24 25 
				10 26 11 
				10 25 26 
				11 27 12 
				11 26 27 
				12 28 13 
				12 27 28 
				13 29 14 
				13 28 29 
				14 30 15 
				14 29 30 
				15 31 0 
				15 30 31 
				16 32 33 
				16 31 32 
				17 33 34 
				17 16 33 
				18 34 35 
				18 17 34 
				19 35 36 
				19 18 35 
				20 36 37 
				20 19 36 
				21 37 38 
				21 20 37 
				22 38 39 
				22 21 38 
				23 39 40 
				23 22 39 
				24 40 41 
				24 23 40 
				25 41 42 
				25 24 41 
				26 42 43 
				26 25 42 
				27 43 44 
				27 26 43 
				28 44 45 
				28 27 44 
				29 45 46 
				29 28 45 
				30 46 47 
				30 29 46 
				31 47 32 
				31 30 47 
				32 48 33 
				32 63 48 
				33 49 34 
				33 48 49 
				34 50 35 
				34 49 50 
				35 51 36 
				35 50 51 
				36 52 37 
				36 51 52 
				37 53 38 
				37 52 53 
				38 54 39 
				38 53 54 
				39 55 40 
				39 54 55 
				40 56 41 
				40 55 56 
				41 57 42 
				41 56 57 
				42 58 43 
				42 57 58 
				43 59 44 
				43 58 59 
				44 60 45 
				44 59 60 
				45 61 46 
				45 60 61 
				46 62 47 
				46 61 62 
				47 63 32 
				47 62 63 
				48 64 65 
				48 63 64 
				49 65 66 
				49 48 65 
				50 66 67 
				50 49 66 
				51 67 68 
				51 50 67 
				52 68 69 
				52 51 68 
				53 69 70 
				53 52 69 
				54 70 71 
				54 53 70 
				55 71 72 
				55 54 71 
				56 72 73 
				56 55 72 
				57 73 74 
				57 56 73 
				58 74 75 
				58 57 74 
				59 75 76 
				59 58 75 
				60 76 77 
				60 59 76 
				61 77 78 
				61 60 77 
				62 78 79 
				62 61 78 
				63 79 64 
				63 62 79 
			</DataArray>
			<DataArray type="UInt32" Name="offsets" Format="ascii">
				3
				6
				9
				12
				15
				18
				21
				24
				27
				30
				33
				36
				39
				42
				45
				48
				51
				54
				57
				60
				63
				66
				69
				72
				75
				78
				81
				84
				87
				90
				93
				96
				99
				102
				105
				108
				111
				114
				117
				120
				123
				126
				129
				132
				135
				138
				141
				144
				147
				150
				153
				156
				159
				162
				165
				168
				171
				174
				177
				180
				183
				186
				189
				192
				195
				198
				201
				204
				207
				210
				213
				216
				219
				222
				225
				228
				231
				234
				237
				240
				243
				246
				249
				252
				255
				258
				261
				264
				267
				270
				273
				276
				279
				282
				285
				288
				291
				294
				297
				300
				303
				306
				309
				312
				315
				318
				321
				324
				327
				330
				333
				336
				339
				342
				345
				348
				351
				354
				357
				360
				363
				366
				369
				372
				375
				378
				381
				384
			</DataArray>
			<DataArray type="Int32" Name="types" Format="ascii">
				5
				5
				5
				5
				5
				5
				5
				5
				5
				5
				5
				5
				5
				5
				5
				5
				5
				5
				5
				5
				5
				5
				5
				5
				5
				5
				5
				5
				5
				5
				5
				5
				5
				5
				5
				5
				5
				5
				5
				5
				5
				5
				5
				5
				5
				5
				5
				5
				5
				5
				5
				5
				5
				5
				5
				5
				5
				5
				5
				5
				5
				5
				5
				5
				5
				5
				5
				5
				5
				5
				5
				5
				5
				5
				5
				5
				5
				5
				5
				5
				5
				5
				5
				5
				5
				5
				5
				5
				5
				5
				5
				5
				5
				5
				5
				5
				5
				5
				5
				5
				5
				5
				5
				5
				5
				5
				5
				5
				5
				5
				5
				5
				5
				5
				5
				5
				5
				5
				5
				5
				5
				5
				5
				5
				5
				5
				5
				5
			</DataArray>
		</Cells>
	</Piece>
</UnstructuredGrid>
</VTKFile>