<VTKFile type="UnstructuredGrid" version="0.1" byte_order="LittleEndian">
<UnstructuredGrid>
	<Piece NumberOfPoints="80" NumberOfCells="128">
		<CellData Scalars="density" Vectors="velocity">
			<DataArray type="Float64" Name="density" Format="ascii">
				4.92674e+133
				6.81618e+127
				-4.54886e+134
				5.22081e+133
				1.33012e+134
				-5.48922e+134
				2.74505e+134
				4.96601e+134
				-1.72332e+134
				-1.87686e+134
				-2.11323e+133
				1.28487e+133
				2.85154e+145
				-2.86894e+133
				-1.25112e+145
				3.54818e+145
				-2.25566e+145
				-4.16663e+145
				2.72401e+146
				3.00609e+145
				-1.74436e+147
				3.0256e+146
				1.42531e+147
				-2.15824e+147
				1.1602e+147
				3.49904e+147
				-2.93936e+147
				-3.50036e+147
				2.6418e+146
				2.76369e+146
				6.45785e+121
				1.91169e+121
				-5.99284e+151
				1.85707e+128
				-4.93623e+151
				2.76117e+133
				-nan
				-1.73239e+134
				-nan
				1.105e+134
				-nan
				-1.43153e+134
				-nan
				8.40105e+132
				-nan
				-5.96025e+132
				-nan
				9.55536e+144
				-nan
				-7.16897e+144
				-nan
				1.16335e+145
				-nan
				1.24781e+146
				-nan
				-1.02539e+147
				-nan
				6.34339e+146
				-nan
				-1.07782e+147
				-nan
				1.53854e+146
				9.68903e+127
				2.69158e+121
				-8.56559e+151
				1.0495e+129
				-7.19255e+151
				-7.89414e+151
				-nan
				7.176e+145
				-nan
				-1.03962e+155
				-nan
				-1.3075e+153
				-nan
				-5.72552e+144
				-nan
				1.83729e+163
				-nan
				5.67597e+158
				-nan
				6.34865e+158
				-nan
				2.16965e+153
				-nan
				-5.88513e+164
				-nan
				1.12559e+164
				-nan
				-nan
				-nan
				-nan
				-nan
				-nan
				1.63476e+128
				4.0838e+127
				2.06939e+139
				2.73581e+129
				-1.11289e+139
				-4.15988e+131
				-3.98232e+141
				7.03703e+137
				8.33292e+141
				2.69749e+134
				-4.90162e+141
				-2.72766e+134
				1.00877e+151
				-1.3136e+133
				-2.14263e+151
				2.2664e+144
				1.66118e+151
				-1.14947e+150
				-3.78324e+150
				-2.57615e+145
				-4.20494e+152
				1.52264e+144
				8.75593e+152
				1.58994e+146
				-nan
				-1.47613e+146
				-nan
				-5.84029e+146
				-nan
				-nan
				-nan
				-3.40639e+146
				5.35429e+128
				-4.87101e+126
			</DataArray>
			<DataArray type="Float64" Name="mach-number" Format="ascii">
				1.78121
				1.0221
				1.86887
				1.33056
				-nan
				1.40251
				1.86572
				1.49464
				-nan
				4.94421
				2.20513
				2.86705
				1.93712
				1.90721
				4.50879
				1.61146
				2.16012
				1.63611
				1.51157
				1.87818
				2.38409
				1.38581
				1.8874
				1.87135
				6.63277
				1.4477
				1.87779
				1.45513
				1.82217
				1.40659
				1.93135
				1.90267
				2.2491
				1.09259
				2.29874
				2.89279
				-nan
				2.83949
				-nan
				-nan
				-nan
				-nan
				-nan
				-nan
				-nan
				-nan
				-nan
				3.01719
				-nan
				3.18996
				-nan
				13.6174
				-nan
				3.32244
				-nan
				-nan
				-nan
				3.91282
				-nan
				2.76872
				-nan
				2.88824
				1.10241
				3.46969
				1.90048
				1.07123
				1.95523
				0.868031
				-nan
				0.865538
				-nan
				0.916932
				-nan
				0.948687
				-nan
				0.981322
				-nan
				1.01207
				-nan
				1.07935
				-nan
				1.04755
				-nan
				1.03837
				-nan
				1.01207
				-nan
				0.981429
				-nan
				-nan
				-nan
				-nan
				-nan
				-nan
				1.09786
				2.04638
				-nan
				1.14918
				-nan
				-nan
				-nan
				-nan
				-nan
				-nan
				-nan
				-nan
				-nan
				-nan
				-nan
				-nan
				-nan
				-nan
				-nan
				-nan
				-nan
				-nan
				-nan
				-nan
				-nan
				-nan
				-nan
				-nan
				-nan
				-nan
				-nan
				-nan
				1.0929
				-nan
			</DataArray>
			<DataArray type="Float64" Name="pressure" Format="ascii">
				1.23572e+135
				4.0274e+128
				-9.14838e+135
				1.38169e+135
				-9.09179e+134
				-1.18753e+136
				3.02486e+135
				6.02241e+135
				6.22122e+134
				-4.23203e+134
				-1.84489e+134
				1.01643e+134
				3.96993e+146
				-2.45548e+134
				-3.84283e+145
				5.11934e+146
				-2.28782e+146
				-4.76793e+146
				6.69036e+147
				3.5198e+146
				-1.82818e+148
				6.97863e+147
				1.8545e+148
				-2.62495e+148
				1.99378e+147
				4.9199e+148
				-5.7785e+148
				-7.30981e+148
				6.56174e+147
				7.18554e+147
				2.3311e+122
				1.73077e+122
				-2.38923e+153
				1.19038e+129
				-1.95548e+153
				1.23789e+135
				-nan
				-6.1321e+135
				-nan
				-5.90676e+134
				-nan
				3.95987e+135
				-nan
				-1.5518e+134
				-nan
				6.79649e+133
				-nan
				1.97244e+146
				-nan
				-8.77925e+145
				-nan
				1.28014e+145
				-nan
				4.03483e+147
				-nan
				9.72835e+147
				-nan
				6.73181e+147
				-nan
				-3.87161e+148
				-nan
				6.67687e+147
				7.2564e+128
				1.67111e+122
				-3.58274e+153
				7.02493e+129
				-2.98267e+153
				-8.01875e+153
				-nan
				8.27742e+147
				-nan
				-1.12814e+157
				-nan
				-1.30353e+155
				-nan
				-5.42456e+146
				-nan
				1.55004e+165
				-nan
				3.72893e+160
				-nan
				4.31133e+160
				-nan
				1.53997e+155
				-nan
				-4.96501e+166
				-nan
				1.06616e+166
				-nan
				-nan
				-nan
				-nan
				-nan
				-nan
				1.63765e+129
				7.84547e+128
				-1.41002e+156
				2.26819e+130
				1.93426e+156
				2.72396e+148
				5.96752e+157
				-8.82182e+146
				-1.34369e+158
				-3.75598e+150
				8.47537e+157
				4.44052e+150
				-4.09081e+166
				3.07271e+143
				4.45844e+166
				-7.52983e+159
				-3.46256e+165
				6.01595e+159
				2.27695e+162
				1.49101e+157
				2.00291e+167
				-3.30697e+152
				-4.95288e+167
				-6.98088e+160
				-nan
				8.91881e+160
				-nan
				1.1645e+161
				-nan
				-nan
				-nan
				6.26394e+163
				1.10086e+130
				6.91349e+129
			</DataArray>
			<DataArray type="Float64" Name="velocity" NumberOfComponents="3" Format="ascii">
				-3.66521 -9.89819 0.0 
				-0.9169 2.79301 0.0 
				-0.284163 -9.91254 0.0 
				-3.56941 -7.27008 0.0 
				5.79764 -9.37669 0.0 
				-1.28903 -7.6102 0.0 
				-4.81564 -5.52356 0.0 
				-2.59702 -5.58423 0.0 
				-9.04282 -4.89537 0.0 
				-7.48813 -4.59305 0.0 
				7.35013 -2.32536 0.0 
				9.37426 -1.77769 0.0 
				8.38097 1.70219 0.0 
				5.83934 -3.08016 0.0 
				7.43686 5.66666 0.0 
				7.21597 0.619141 0.0 
				7.20288 -3.79151 0.0 
				6.51371 -0.675145 0.0 
				1.87932 8.66214 0.0 
				7.30698 -2.10564 0.0 
				-3.71714 8.34151 0.0 
				2.06256 7.60001 0.0 
				-3.31008 7.3439 0.0 
				-2.39731 7.34044 0.0 
				7.58303 6.95274 0.0 
				0.18638 6.42043 0.0 
				3.26844 9.29328 0.0 
				1.63614 7.69596 0.0 
				0.448697 10.7358 0.0 
				-0.391829 8.4772 0.0 
				1.94713 3.88061 0.0 
				-1.21575 6.6639 0.0 
				-10.5292 -13.0948 0.0 
				0.176475 3.26826 0.0 
				-17.0318 1.72726 0.0 
				4.8456 -22.3998 0.0 
				-nan -nan 0.0 
				4.06017 -19.572 0.0 
				-nan -nan 0.0 
				-9.69507 -11.9706 0.0 
				-nan -nan 0.0 
				-17.4963 -8.11578 0.0 
				-nan -nan 0.0 
				19.792 0.13891 0.0 
				-nan -nan 0.0 
				14.1293 -5.72628 0.0 
				-nan -nan 0.0 
				14.0632 8.08137 0.0 
				-nan -nan 0.0 
				12.7831 -3.32473 0.0 
				-nan -nan 0.0 
				13.2189 -10.5323 0.0 
				-nan -nan 0.0 
				-12.4826 18.5444 0.0 
				-nan -nan 0.0 
				-12.304 14.8092 0.0 
				-nan -nan 0.0 
				-3.21635 14.7351 0.0 
				-nan -nan 0.0 
				10.6402 16.5013 0.0 
				-nan -nan 0.0 
				12.5582 18.6847 0.0 
				-0.64066 3.5117 0.0 
				1.72903 10.0823 0.0 
				-7.45954 -12.4842 0.0 
				-0.607931 3.22242 0.0 
				-14.5003 3.41878 0.0 
				-9.41049 -4.31216 0.0 
				-nan -nan 0.0 
				-7.26144 -8.26142 0.0 
				-nan -nan 0.0 
				-3.45694 -10.7601 0.0 
				-nan -nan 0.0 
				1 -11.1633 0.0 
				-nan -nan 0.0 
				5.16561 -10.0523 0.0 
				-nan -nan 0.0 
				8.26143 -7.26143 0.0 
				-nan -nan 0.0 
				9.70338 -3.60505 0.0 
				-nan -nan 0.0 
				10.2142 0.000577104 0.0 
				-nan -nan 0.0 
				9.69774 3.61868 0.0 
				-nan -nan 0.0 
				8.26142 7.26144 0.0 
				-nan -nan 0.0 
				5.16404 10.053 0.0 
				-nan -nan 0.0 
				-nan -nan 0.0 
				-nan -nan 0.0 
				-nan -nan 0.0 
				-nan -nan 0.0 
				-nan -nan 0.0 
				-0.379663 4.09388 0.0 
				-9.7524 4.18579 0.0 
				-1.47295e+08 4.34401e+08 0.0 
				0.75134 3.84237 0.0 
				-2.88149e+08 7.46355e+08 0.0 
				-2.00863e+08 5.36415e+08 0.0 
				-1.36656e+08 -5.27834e+07 0.0 
				221.121 43.1348 0.0 
				-1.48663e+08 -2.49002e+07 0.0 
				-2.07289e+08 -3.09381e+07 0.0 
				-1.5915e+08 -5.4162e+06 0.0 
				-2.29918e+08 1.03088e+06 0.0 
				-2.90237e+06 -4.93763e+06 0.0 
				-269751 -47234.8 0.0 
				-1.25062e+07 -2.15109e+07 0.0 
				3.5843e+07 4.15734e+07 0.0 
				-1.4853e+07 -2.86582e+07 0.0 
				133.694 74.8195 0.0 
				185570 -1.35247e+06 0.0 
				154407 -1.69736e+06 0.0 
				2.70668e+07 3.55079e+06 0.0 
				-5943.32 -28573.3 0.0 
				2.96989e+07 -3.0028e+06 0.0 
				3.75527e+07 -5.18449e+06 0.0 
				-nan -nan 0.0 
				4.37417e+07 -1.34307e+07 0.0 
				-nan -nan 0.0 
				3.1305e+07 -2.82298e+06 0.0 
				-nan -nan 0.0 
				-nan -nan 0.0 
				-nan -nan 0.0 
				4.40992e+08 2.51538e+08 0.0 
				1.05238 5.76833 0.0 
				3.27558 10.3423 0.0 
			</DataArray>
		</CellData>
		<Points>
		<DataArray type="Float64" NumberOfComponents="3" Format="ascii">
			0.5 0 0.0 
			0.46194 0.191342 0.0 
			0.353553 0.353553 0.0 
			0.191342 0.46194 0.0 
			-2.18557e-08 0.5 0.0 
			-0.191342 0.46194 0.0 
			-0.353553 0.353553 0.0 
			-0.46194 0.191342 0.0 
			-0.5 -4.37114e-08 0.0 
			-0.46194 -0.191342 0.0 
			-0.353553 -0.353553 0.0 
			-0.191342 -0.46194 0.0 
			6.55671e-08 -0.5 0.0 
			0.191342 -0.46194 0.0 
			0.353553 -0.353553 0.0 
			0.46194 -0.191342 0.0 
			0.884503 0.175939 0.0 
			0.749846 0.501031 0.0 
			0.501031 0.749846 0.0 
			0.175939 0.884503 0.0 
			-0.175939 0.884503 0.0 
			-0.501031 0.749846 0.0 
			-0.749846 0.501031 0.0 
			-0.884503 0.175939 0.0 
			-0.884503 -0.175939 0.0 
			-0.749846 -0.501031 0.0 
			-0.501031 -0.749846 0.0 
			-0.175939 -0.884503 0.0 
			0.175939 -0.884503 0.0 
			0.501031 -0.749846 0.0 
			0.749846 -0.501031 0.0 
			0.884503 -0.175938 0.0 
			2.20148 0 0.0 
			2.0339 0.842468 0.0 
			1.55668 1.55668 0.0 
			0.842468 2.0339 0.0 
			-9.62295e-08 2.20148 0.0 
			-0.842468 2.0339 0.0 
			-1.55668 1.55668 0.0 
			-2.0339 0.842468 0.0 
			-2.20148 -1.92459e-07 0.0 
			-2.0339 -0.842468 0.0 
			-1.55668 -1.55668 0.0 
			-0.842468 -2.0339 0.0 
			2.88689e-07 -2.20148 0.0 
			0.842468 -2.0339 0.0 
			1.55668 -1.55668 0.0 
			2.0339 -0.842468 0.0 
			6.28184 1.24954 0.0 
			5.32549 3.55838 0.0 
			3.55838 5.32549 0.0 
			1.24954 6.28184 0.0 
			-1.24954 6.28184 0.0 
			-3.55838 5.32549 0.0 
			-5.32549 3.55838 0.0 
			-6.28184 1.24954 0.0 
			-6.28184 -1.24954 0.0 
			-5.32549 -3.55838 0.0 
			-3.55838 -5.32549 0.0 
			-1.24954 -6.28184 0.0 
			1.24954 -6.28184 0.0 
			3.55838 -5.32549 0.0 
			5.32549 -3.55838 0.0 
			6.28184 -1.24953 0.0 
			20.0001 0 0.0 
			18.4777 7.6537 0.0 
			14.1422 14.1422 0.0 
			7.6537 18.4777 0.0 
			-8.74231e-07 20.0001 0.0 
			-7.6537 18.4777 0.0 
			-14.1422 14.1422 0.0 
			-18.4777 7.65369 0.0 
			-20.0001 -1.74846e-06 0.0 
			-18.4777 -7.6537 0.0 
			-14.1422 -14.1422 0.0 
			-7.65369 -18.4777 0.0 
			2.62269e-06 -20.0001 0.0 
			7.6537 -18.4777 0.0 
			14.1422 -14.1422 0.0 
			18.4777 -7.65369 0.0 
		</DataArray>
		</Points>
		<Cells>
			<DataArray type="UInt32" Name="connectivity" Format="ascii">
				0 16 1 
				0 31 16 
				1 17 2 
				1 16 17 
				2 18 3 
				2 17 18 
				3 19 4 
				3 18 19 
				4 20 5 
				4 19 20 
				5 21 6 
				5 20 21 
				6 22 7 
				6 21 22 
				7 23 8 
				7 22 23 
				8 24 9 
				8 23 24 
				9 25 10 
				9 24 25 
				10 26 11 
				10 25 26 
				11 27 12 
				11 26 27 
				12 28 13 
				12 27 28 
				13 29 14 
				13 28 29 
				14 30 15 
				14 29 30 
				15 31 0 
				15 30 31 
				16 32 33 
				16 31 32 
				17 33 34 
				17 16 33 
				18 34 35 
				18 17 34 
				19 35 36 
				19 18 35 
				20 36 37 
				20 19 36 
				21 37 38 
				21 20 37 
				22 38 39 
				22 21 38 
				23 39 40 
				23 22 39 
				24 40 41 
				24 23 40 
				25 41 42 
				25 24 41 
				26 42 43 
				26 25 42 
				27 43 44 
				27 26 43 
				28 44 45 
				28 27 44 
				29 45 46 
				29 28 45 
				30 46 47 
				30 29 46 
				31 47 32 
				31 30 47 
				32 48 33 
				32 63 48 
				33 49 34 
				33 48 49 
				34 50 35 
				34 49 50 
				35 51 36 
				35 50 51 
				36 52 37 
				36 51 52 
				37 53 38 
				37 52 53 
				38 54 39 
				38 53 54 
				39 55 40 
				39 54 55 
				40 56 41 
				40 55 56 
				41 57 42 
				41 56 57 
				42 58 43 
				42 57 58 
				43 59 44 
				43 58 59 
				44 60 45 
				44 59 60 
				45 61 46 
				45 60 61 
				46 62 47 
				46 61 62 
				47 63 32 
				47 62 63 
				48 64 65 
				48 63 64 
				49 65 66 
				49 48 65 
				50 66 67 
				50 49 66 
				51 67 68 
				51 50 67 
				52 68 69 
				52 51 68 
				53 69 70 
				53 52 69 
				54 70 71 
				54 53 70 
				55 71 72 
				55 54 71 
				56 72 73 
				56 55 72 
				57 73 74 
				57 56 73 
				58 74 75 
				58 57 74 
				59 75 76 
				59 58 75 
				60 76 77 
				60 59 76 
				61 77 78 
				61 60 77 
				62 78 79 
				62 61 78 
				63 79 64 
				63 62 79 
			</DataArray>
			<DataArray type="UInt32" Name="offsets" Format="ascii">
				3
				6
				9
				12
				15
				18
				21
				24
				27
				30
				33
				36
				39
				42
				45
				48
				51
				54
				57
				60
				63
				66
				69
				72
				75
				78
				81
				84
				87
				90
				93
				96
				99
				102
				105
				108
				111
				114
				117
				120
				123
				126
				129
				132
				135
				138
				141
				144
				147
				150
				153
				156
				159
				162
				165
				168
				171
				174
				177
				180
				183
				186
				189
				192
				195
				198
				201
				204
				207
				210
				213
				216
				219
				222
				225
				228
				231
				234
				237
				240
				243
				246
				249
				252
				255
				258
				261
				264
				267
				270
				273
				276
				279
				282
				285
				288
				291
				294
				297
				300
				303
				306
				309
				312
				315
				318
				321
				324
				327
				330
				333
				336
				339
				342
				345
				348
				351
				354
				357
				360
				363
				366
				369
				372
				375
				378
				381
				384
			</DataArray>
			<DataArray type="Int32" Name="types" Format="ascii">
				5
				5
				5
				5
				5
				5
				5
				5
				5
				5
				5
				5
				5
				5
				5
				5
				5
				5
				5
				5
				5
				5
				5
				5
				5
				5
				5
				5
				5
				5
				5
				5
				5
				5
				5
				5
				5
				5
				5
				5
				5
				5
				5
				5
				5
				5
				5
				5
				5
				5
				5
				5
				5
				5
				5
				5
				5
				5
				5
				5
				5
				5
				5
				5
				5
				5
				5
				5
				5
				5
				5
				5
				5
				5
				5
				5
				5
				5
				5
				5
				5
				5
				5
				5
				5
				5
				5
				5
				5
				5
				5
				5
				5
				5
				5
				5
				5
				5
				5
				5
				5
				5
				5
				5
				5
				5
				5
				5
				5
				5
				5
				5
				5
				5
				5
				5
				5
				5
				5
				5
				5
				5
				5
				5
				5
				5
				5
				5
			</DataArray>
		</Cells>
	</Piece>
</UnstructuredGrid>
</VTKFile>