<VTKFile type="UnstructuredGrid" version="0.1" byte_order="LittleEndian">
<UnstructuredGrid>
	<Piece NumberOfPoints="4224" NumberOfCells="8192">
		<PointData Scalars="density" Vectors="velocity">
			<DataArray type="Float64" Name="density" Format="ascii">
				0.26645
				0.266339
				0.266047
				0.265597
				0.264927
				0.263962
				0.26267
				0.261039
				0.259072
				0.256785
				0.2542
				0.251344
				0.248243
				0.244927
				0.241425
				0.237764
				0.23397
				0.230069
				0.22609
				0.222063
				0.218019
				0.213989
				0.210006
				0.206114
				0.202358
				0.198787
				0.195456
				0.192426
				0.189779
				0.187599
				0.185952
				0.184922
				0.184568
				0.184907
				0.185927
				0.187558
				0.189732
				0.192374
				0.1954
				0.198726
				0.202294
				0.206045
				0.209931
				0.213903
				0.217917
				0.221944
				0.225948
				0.229898
				0.233769
				0.23753
				0.241161
				0.244638
				0.247943
				0.251054
				0.253954
				0.256627
				0.259059
				0.261237
				0.263148
				0.264782
				0.266131
				0.267188
				0.267947
				0.268403
				0.268556
				0.268403
				0.267947
				0.267188
				0.266131
				0.264782
				0.263148
				0.261237
				0.25906
				0.256628
				0.253955
				0.251055
				0.247944
				0.244639
				0.241162
				0.23753
				0.23377
				0.229901
				0.225949
				0.221945
				0.217919
				0.213905
				0.209933
				0.206049
				0.202296
				0.198728
				0.195402
				0.192377
				0.189734
				0.187561
				0.18593
				0.18491
				0.184572
				0.184925
				0.185955
				0.187602
				0.189782
				0.192429
				0.195459
				0.19879
				0.20236
				0.206116
				0.210008
				0.213991
				0.218021
				0.222065
				0.226092
				0.23007
				0.233971
				0.237766
				0.241427
				0.244929
				0.248244
				0.251345
				0.254201
				0.256786
				0.259073
				0.261039
				0.26267
				0.263963
				0.264927
				0.265597
				0.266047
				0.266339
				0.266384
				0.266178
				0.265824
				0.265302
				0.264537
				0.263479
				0.262111
				0.26043
				0.258445
				0.256175
				0.25364
				0.250867
				0.247879
				0.244704
				0.241365
				0.237887
				0.234294
				0.230613
				0.226867
				0.223087
				0.219302
				0.215542
				0.211844
				0.208249
				0.204802
				0.201554
				0.198558
				0.195884
				0.193608
				0.191806
				0.190543
				0.189893
				0.189885
				0.190526
				0.191775
				0.193567
				0.195833
				0.198498
				0.201484
				0.204724
				0.208162
				0.211747
				0.215433
				0.219178
				0.222946
				0.226707
				0.230428
				0.234086
				0.237653
				0.241107
				0.244425
				0.24759
				0.250582
				0.253384
				0.255981
				0.258358
				0.260504
				0.262407
				0.264056
				0.265444
				0.266563
				0.267407
				0.267972
				0.268256
				0.268256
				0.267972
				0.267407
				0.266563
				0.265444
				0.264057
				0.262407
				0.260505
				0.258359
				0.255981
				0.253385
				0.250583
				0.247591
				0.244427
				0.241108
				0.237654
				0.234088
				0.23043
				0.226708
				0.222947
				0.219179
				0.215435
				0.211749
				0.208165
				0.204726
				0.201486
				0.198501
				0.195835
				0.193569
				0.191778
				0.190529
				0.189888
				0.189896
				0.190546
				0.191809
				0.193611
				0.195887
				0.198561
				0.201556
				0.204804
				0.208251
				0.211846
				0.215545
				0.219304
				0.223089
				0.226869
				0.230614
				0.234296
				0.237889
				0.241366
				0.244705
				0.24788
				0.250868
				0.253641
				0.256176
				0.258446
				0.260431
				0.262111
				0.26348
				0.264537
				0.265302
				0.265824
				0.266179
				0.266384
				0.266195
				0.266082
				0.265797
				0.265383
				0.264786
				0.263945
				0.26284
				0.261464
				0.259822
				0.257928
				0.255796
				0.253447
				0.250901
				0.248177
				0.245295
				0.242276
				0.23914
				0.235908
				0.232602
				0.229247
				0.225868
				0.222494
				0.219155
				0.215886
				0.212728
				0.209723
				0.206922
				0.204382
				0.202165
				0.200339
				0.198969
				0.198116
				0.197821
				0.198102
				0.198943
				0.2003
				0.202114
				0.20432
				0.20685
				0.209641
				0.212636
				0.215785
				0.219045
				0.222374
				0.225739
				0.229107
				0.232452
				0.235748
				0.238971
				0.242099
				0.245114
				0.247997
				0.250732
				0.253303
				0.255697
				0.257901
				0.259903
				0.261694
				0.263264
				0.264606
				0.265713
				0.26658
				0.267202
				0.267576
				0.267701
				0.267576
				0.267202
				0.26658
				0.265713
				0.264607
				0.263265
				0.261694
				0.259904
				0.257901
				0.255697
				0.253304
				0.250732
				0.247998
				0.245115
				0.2421
				0.238972
				0.235749
				0.232454
				0.229109
				0.22574
				0.222376
				0.219046
				0.215787
				0.212638
				0.209643
				0.206852
				0.204322
				0.202116
				0.200302
				0.198946
				0.198105
				0.197824
				0.198118
				0.198972
				0.200341
				0.202167
				0.204384
				0.206925
				0.209725
				0.21273
				0.215888
				0.219157
				0.222496
				0.22587
				0.229249
				0.232604
				0.235909
				0.239141
				0.242278
				0.245297
				0.248178
				0.250902
				0.253448
				0.255797
				0.257928
				0.259823
				0.261464
				0.26284
				0.263946
				0.264786
				0.265383
				0.265798
				0.266082
				0.265705
				0.265489
				0.265138
				0.264653
				0.263971
				0.263064
				0.261929
				0.260569
				0.258995
				0.257217
				0.25525
				0.253105
				0.250799
				0.248344
				0.245758
				0.243055
				0.240254
				0.237373
				0.234433
				0.231457
				0.228468
				0.225495
				0.222567
				0.219719
				0.21699
				0.214422
				0.212063
				0.209966
				0.208189
				0.206787
				0.205815
				0.205314
				0.205307
				0.205795
				0.206755
				0.208145
				0.209912
				0.211998
				0.214349
				0.216909
				0.219631
				0.222473
				0.225397
				0.228367
				0.231354
				0.234332
				0.237275
				0.240161
				0.242972
				0.245688
				0.248292
				0.250771
				0.25311
				0.255297
				0.25732
				0.25917
				0.260836
				0.262312
				0.26359
				0.264663
				0.265528
				0.266181
				0.266617
				0.266836
				0.266836
				0.266617
				0.266181
				0.265529
				0.264664
				0.26359
				0.262312
				0.260837
				0.25917
				0.257321
				0.255298
				0.253111
				0.250772
				0.248293
				0.245688
				0.242973
				0.240162
				0.237276
				0.234333
				0.231356
				0.228369
				0.225398
				0.222475
				0.219633
				0.216911
				0.21435
				0.212001
				0.209914
				0.208147
				0.206758
				0.205798
				0.205309
				0.205316
				0.205817
				0.20679
				0.208191
				0.209969
				0.212065
				0.214424
				0.216992
				0.219721
				0.222569
				0.225496
				0.228469
				0.231458
				0.234435
				0.237375
				0.240255
				0.243057
				0.245759
				0.248345
				0.2508
				0.253106
				0.25525
				0.257218
				0.258996
				0.26057
				0.261929
				0.263064
				0.263971
				0.264653
				0.265138
				0.265489
				0.265705
				0.265028
				0.264909
				0.26462
				0.264218
				0.263662
				0.262915
				0.261976
				0.260854
				0.259553
				0.258084
				0.256454
				0.25467
				0.252742
				0.250679
				0.248492
				0.246194
				0.243798
				0.24132
				0.238778
				0.236191
				0.233581
				0.230971
				0.228387
				0.22586
				0.223423
				0.22111
				0.218965
				0.21703
				0.215352
				0.21398
				0.212958
				0.212326
				0.212108
				0.212314
				0.212936
				0.213946
				0.215308
				0.216977
				0.218904
				0.221042
				0.223349
				0.225782
				0.228306
				0.230889
				0.2335
				0.236115
				0.238709
				0.241263
				0.243757
				0.246174
				0.2485
				0.25072
				0.252822
				0.254794
				0.256627
				0.258312
				0.259841
				0.261206
				0.262401
				0.263421
				0.264262
				0.264919
				0.265391
				0.265675
				0.265769
				0.265675
				0.265391
				0.264919
				0.264262
				0.263421
				0.262401
				0.261206
				0.259841
				0.258313
				0.256628
				0.254795
				0.252822
				0.25072
				0.248501
				0.246175
				0.243758
				0.241264
				0.23871
				0.236116
				0.233501
				0.23089
				0.228308
				0.225783
				0.22335
				0.221044
				0.218905
				0.216978
				0.21531
				0.213948
				0.212938
				0.212316
				0.21211
				0.212328
				0.212961
				0.213982
				0.215354
				0.217032
				0.218967
				0.221112
				0.223424
				0.225862
				0.228389
				0.230972
				0.233582
				0.236193
				0.238779
				0.241321
				0.243799
				0.246195
				0.248493
				0.25068
				0.252743
				0.254671
				0.256454
				0.258085
				0.259554
				0.260854
				0.261977
				0.262915
				0.263662
				0.264218
				0.26462
				0.264909
				0.264026
				0.263817
				0.263489
				0.263042
				0.262435
				0.261664
				0.260742
				0.259675
				0.25847
				0.257131
				0.255661
				0.254064
				0.252347
				0.250518
				0.248585
				0.24656
				0.244456
				0.242287
				0.240069
				0.237821
				0.235563
				0.233318
				0.23111
				0.228968
				0.226923
				0.225007
				0.223259
				0.221716
				0.220418
				0.219402
				0.218703
				0.218344
				0.218339
				0.218689
				0.21938
				0.220388
				0.221679
				0.223216
				0.224959
				0.226871
				0.228914
				0.231055
				0.233264
				0.235513
				0.237776
				0.240033
				0.242263
				0.244449
				0.246575
				0.248627
				0.250592
				0.252458
				0.254216
				0.255857
				0.257373
				0.258756
				0.26
				0.2611
				0.262051
				0.26285
				0.263492
				0.263977
				0.264301
				0.264463
				0.264463
				0.264301
				0.263977
				0.263493
				0.26285
				0.262051
				0.2611
				0.26
				0.258756
				0.257373
				0.255858
				0.254217
				0.252459
				0.250592
				0.248628
				0.246576
				0.24445
				0.242264
				0.240034
				0.237777
				0.235514
				0.233265
				0.231057
				0.228915
				0.226872
				0.224961
				0.223217
				0.22168
				0.220389
				0.219382
				0.218691
				0.218341
				0.218346
				0.218705
				0.219404
				0.220419
				0.221717
				0.22326
				0.225009
				0.226924
				0.22897
				0.231112
				0.233319
				0.235565
				0.237822
				0.24007
				0.242288
				0.244457
				0.246561
				0.248586
				0.250519
				0.252348
				0.254065
				0.255661
				0.257131
				0.258471
				0.259676
				0.260742
				0.261664
				0.262435
				0.263043
				0.263489
				0.263817
				0.264026
				0.262854
				0.26275
				0.2625
				0.262153
				0.261676
				0.261057
				0.26031
				0.259446
				0.258468
				0.257377
				0.256174
				0.254864
				0.253448
				0.251932
				0.250324
				0.248632
				0.246867
				0.245039
				0.243163
				0.241254
				0.239327
				0.237403
				0.235503
				0.233649
				0.231867
				0.230186
				0.228635
				0.227246
				0.22605
				0.22508
				0.224364
				0.223922
				0.223772
				0.223916
				0.224352
				0.225064
				0.226029
				0.22722
				0.228607
				0.230156
				0.231838
				0.233621
				0.235477
				0.237383
				0.239314
				0.241249
				0.243171
				0.245062
				0.246908
				0.248696
				0.250414
				0.252051
				0.253599
				0.25505
				0.256396
				0.25763
				0.258749
				0.259746
				0.260618
				0.261361
				0.261973
				0.262451
				0.262794
				0.263
				0.263069
				0.263
				0.262794
				0.262451
				0.261973
				0.261361
				0.260618
				0.259746
				0.258749
				0.257631
				0.256396
				0.25505
				0.2536
				0.252052
				0.250414
				0.248696
				0.246909
				0.245063
				0.243171
				0.24125
				0.239314
				0.237384
				0.235479
				0.233622
				0.231839
				0.230158
				0.228608
				0.227222
				0.22603
				0.225065
				0.224354
				0.223918
				0.223773
				0.223924
				0.224365
				0.225082
				0.226052
				0.227247
				0.228636
				0.230187
				0.231869
				0.23365
				0.235504
				0.237405
				0.239328
				0.241255
				0.243164
				0.24504
				0.246868
				0.248633
				0.250325
				0.251933
				0.253448
				0.254864
				0.256175
				0.257377
				0.258468
				0.259447
				0.260311
				0.261057
				0.261676
				0.262153
				0.2625
				0.26275
				0.261469
				0.261308
				0.261052
				0.260696
				0.260218
				0.259628
				0.25894
				0.258156
				0.257277
				0.256303
				0.255236
				0.254079
				0.252836
				0.251513
				0.250115
				0.24865
				0.247129
				0.245562
				0.24396
				0.242339
				0.240712
				0.239098
				0.237516
				0.235986
				0.234532
				0.233178
				0.23195
				0.230874
				0.229975
				0.229277
				0.228799
				0.228555
				0.228553
				0.228794
				0.229269
				0.229965
				0.230862
				0.231938
				0.233166
				0.234521
				0.235978
				0.237512
				0.2391
				0.240721
				0.242357
				0.24399
				0.245604
				0.247187
				0.248725
				0.250209
				0.251628
				0.252975
				0.254242
				0.255422
				0.256511
				0.257502
				0.258393
				0.25918
				0.259859
				0.260429
				0.260887
				0.261232
				0.261462
				0.261578
				0.261578
				0.261462
				0.261232
				0.260887
				0.260429
				0.25986
				0.25918
				0.258394
				0.257503
				0.256511
				0.255423
				0.254242
				0.252976
				0.251629
				0.25021
				0.248726
				0.247187
				0.245605
				0.24399
				0.242358
				0.240722
				0.239101
				0.237513
				0.235979
				0.234522
				0.233167
				0.231939
				0.230864
				0.229966
				0.22927
				0.228795
				0.228555
				0.228556
				0.2288
				0.229278
				0.229976
				0.230875
				0.231951
				0.233179
				0.234533
				0.235987
				0.237517
				0.239099
				0.240713
				0.24234
				0.243961
				0.245563
				0.24713
				0.248651
				0.250115
				0.251513
				0.252837
				0.25408
				0.255237
				0.256303
				0.257277
				0.258156
				0.25894
				0.259628
				0.260218
				0.260696
				0.261052
				0.261308
				0.261469
				0.260059
				0.259987
				0.259814
				0.259565
				0.259215
				0.258764
				0.258229
				0.257611
				0.256913
				0.256133
				0.255275
				0.25434
				0.253331
				0.252253
				0.25111
				0.24991
				0.248658
				0.247364
				0.246037
				0.244688
				0.24333
				0.241976
				0.240643
				0.239347
				0.238106
				0.236942
				0.235873
				0.234922
				0.234109
				0.233454
				0.232972
				0.232677
				0.232577
				0.232676
				0.23297
				0.233451
				0.234106
				0.23492
				0.235872
				0.236943
				0.238111
				0.239356
				0.240657
				0.241998
				0.24336
				0.244728
				0.246088
				0.247427
				0.248735
				0.250001
				0.251216
				0.252374
				0.253467
				0.25449
				0.255438
				0.256306
				0.257091
				0.25779
				0.258401
				0.258921
				0.259349
				0.259683
				0.259922
				0.260066
				0.260114
				0.260066
				0.259922
				0.259683
				0.259349
				0.258921
				0.258401
				0.257791
				0.257091
				0.256306
				0.255438
				0.25449
				0.253467
				0.252374
				0.251217
				0.250001
				0.248735
				0.247428
				0.246089
				0.244729
				0.243361
				0.241999
				0.240658
				0.239356
				0.238112
				0.236944
				0.235873
				0.234921
				0.234107
				0.233452
				0.232971
				0.232677
				0.232579
				0.232678
				0.232973
				0.233455
				0.234111
				0.234923
				0.235874
				0.236943
				0.238107
				0.239348
				0.240644
				0.241977
				0.243331
				0.244689
				0.246038
				0.247365
				0.248659
				0.24991
				0.251111
				0.252253
				0.253331
				0.25434
				0.255275
				0.256134
				0.256913
				0.257612
				0.258229
				0.258765
				0.259215
				0.259565
				0.259814
				0.259987
				0.258619
				0.258522
				0.258359
				0.258119
				0.25779
				0.257384
				0.256908
				0.256362
				0.255747
				0.255065
				0.254319
				0.25351
				0.252642
				0.251719
				0.250745
				0.249727
				0.248671
				0.247583
				0.246474
				0.245353
				0.244231
				0.24312
				0.242035
				0.24099
				0.240001
				0.239085
				0.238259
				0.237538
				0.23694
				0.236477
				0.236162
				0.236003
				0.236003
				0.236163
				0.236478
				0.236942
				0.237542
				0.238264
				0.239093
				0.240013
				0.241006
				0.242056
				0.243147
				0.244265
				0.245395
				0.246525
				0.247644
				0.248741
				0.249808
				0.250836
				0.25182
				0.252752
				0.253628
				0.254444
				0.255195
				0.255878
				0.256491
				0.257032
				0.257498
				0.257889
				0.258203
				0.258439
				0.258596
				0.258675
				0.258675
				0.258597
				0.258439
				0.258203
				0.257889
				0.257498
				0.257032
				0.256491
				0.255878
				0.255195
				0.254444
				0.253629
				0.252753
				0.25182
				0.250837
				0.249808
				0.248741
				0.247644
				0.246526
				0.245396
				0.244265
				0.243148
				0.242057
				0.241007
				0.240013
				0.239094
				0.238265
				0.237542
				0.236943
				0.236479
				0.236164
				0.236004
				0.236004
				0.236163
				0.236478
				0.236941
				0.237539
				0.238259
				0.239086
				0.240002
				0.240991
				0.242036
				0.243121
				0.244231
				0.245354
				0.246475
				0.247584
				0.248671
				0.249728
				0.250746
				0.251719
				0.252642
				0.25351
				0.254319
				0.255066
				0.255747
				0.256362
				0.256908
				0.257384
				0.25779
				0.258119
				0.258359
				0.258522
				0.25862
				0.257282
				0.257245
				0.257151
				0.256999
				0.256771
				0.256473
				0.256114
				0.255696
				0.255219
				0.254686
				0.254098
				0.253457
				0.252767
				0.25203
				0.25125
				0.25043
				0.249577
				0.248696
				0.247794
				0.246878
				0.245958
				0.245044
				0.244145
				0.243275
				0.242446
				0.241671
				0.240963
				0.240336
				0.239802
				0.239374
				0.23906
				0.238869
				0.238806
				0.238871
				0.239063
				0.239378
				0.239809
				0.240345
				0.240974
				0.241686
				0.242465
				0.243299
				0.244174
				0.245078
				0.245998
				0.246925
				0.247847
				0.248757
				0.249645
				0.250505
				0.251331
				0.252117
				0.252859
				0.253552
				0.254194
				0.254781
				0.255312
				0.255784
				0.256196
				0.256546
				0.256834
				0.257058
				0.257219
				0.257316
				0.257348
				0.257316
				0.257219
				0.257058
				0.256834
				0.256546
				0.256196
				0.255784
				0.255312
				0.254782
				0.254194
				0.253552
				0.252859
				0.252117
				0.251331
				0.250506
				0.249646
				0.248757
				0.247848
				0.246925
				0.245999
				0.245078
				0.244174
				0.243299
				0.242466
				0.241686
				0.240975
				0.240345
				0.23981
				0.239379
				0.239064
				0.238872
				0.238807
				0.23887
				0.239061
				0.239375
				0.239803
				0.240337
				0.240964
				0.241671
				0.242447
				0.243276
				0.244146
				0.245044
				0.245959
				0.246879
				0.247794
				0.248697
				0.249578
				0.250431
				0.25125
				0.25203
				0.252767
				0.253458
				0.254098
				0.254686
				0.255219
				0.255696
				0.256114
				0.256473
				0.256772
				0.256999
				0.257151
				0.257245
				0.256042
				0.255999
				0.255914
				0.255768
				0.255557
				0.255292
				0.254978
				0.254614
				0.254204
				0.253747
				0.253247
				0.252705
				0.252124
				0.251505
				0.250854
				0.250172
				0.249466
				0.248739
				0.248
				0.247253
				0.246508
				0.245773
				0.245056
				0.244369
				0.24372
				0.243122
				0.242585
				0.242119
				0.241733
				0.241436
				0.241234
				0.241132
				0.241133
				0.241237
				0.241441
				0.24174
				0.242129
				0.242598
				0.243138
				0.24374
				0.244392
				0.245083
				0.245804
				0.246544
				0.247294
				0.248046
				0.24879
				0.249521
				0.250232
				0.250918
				0.251573
				0.252194
				0.252777
				0.253319
				0.253818
				0.254272
				0.254678
				0.255037
				0.255345
				0.255604
				0.255811
				0.255967
				0.256071
				0.256124
				0.256124
				0.256071
				0.255967
				0.255811
				0.255604
				0.255345
				0.255037
				0.254679
				0.254272
				0.253818
				0.253319
				0.252777
				0.252194
				0.251573
				0.250918
				0.250232
				0.249522
				0.248791
				0.248046
				0.247295
				0.246545
				0.245805
				0.245084
				0.244392
				0.243741
				0.243139
				0.242599
				0.242129
				0.241741
				0.241441
				0.241238
				0.241134
				0.241133
				0.241235
				0.241436
				0.241733
				0.242119
				0.242586
				0.243123
				0.243721
				0.244369
				0.245057
				0.245773
				0.246509
				0.247254
				0.248
				0.24874
				0.249466
				0.250172
				0.250854
				0.251506
				0.252124
				0.252706
				0.253248
				0.253748
				0.254204
				0.254614
				0.254978
				0.255292
				0.255557
				0.255768
				0.255914
				0.255999
				0.256042
				0.254953
				0.254941
				0.254905
				0.254822
				0.254681
				0.254491
				0.254259
				0.253987
				0.253675
				0.253327
				0.252942
				0.252521
				0.252068
				0.251584
				0.251071
				0.250532
				0.249972
				0.249393
				0.248802
				0.248203
				0.247602
				0.247006
				0.246422
				0.245858
				0.245323
				0.244824
				0.244369
				0.243969
				0.243629
				0.243357
				0.243158
				0.243038
				0.242998
				0.24304
				0.243163
				0.243364
				0.243638
				0.243981
				0.244385
				0.244842
				0.245344
				0.245883
				0.24645
				0.247038
				0.247637
				0.248241
				0.248844
				0.249438
				0.250019
				0.250582
				0.251123
				0.251637
				0.252122
				0.252575
				0.252994
				0.253378
				0.253724
				0.254031
				0.254299
				0.254527
				0.254714
				0.25486
				0.254965
				0.255027
				0.255048
				0.255027
				0.254965
				0.25486
				0.254714
				0.254527
				0.254299
				0.254031
				0.253724
				0.253378
				0.252995
				0.252575
				0.252122
				0.251637
				0.251123
				0.250583
				0.25002
				0.249439
				0.248844
				0.248242
				0.247637
				0.247038
				0.246451
				0.245884
				0.245345
				0.244842
				0.244385
				0.243982
				0.243639
				0.243364
				0.243164
				0.243041
				0.242999
				0.243039
				0.243159
				0.243357
				0.243629
				0.243969
				0.24437
				0.244824
				0.245323
				0.245859
				0.246423
				0.247006
				0.247602
				0.248203
				0.248802
				0.249394
				0.249972
				0.250533
				0.251071
				0.251584
				0.252068
				0.252522
				0.252942
				0.253327
				0.253676
				0.253987
				0.254259
				0.254491
				0.254681
				0.254822
				0.254905
				0.254941
				0.254005
				0.253998
				0.253963
				0.253877
				0.253745
				0.253577
				0.253377
				0.253145
				0.252882
				0.252589
				0.252267
				0.251918
				0.251543
				0.251144
				0.250723
				0.250283
				0.249827
				0.249359
				0.248882
				0.248403
				0.247924
				0.247454
				0.246996
				0.246558
				0.246146
				0.245768
				0.245428
				0.245135
				0.244892
				0.244706
				0.24458
				0.244517
				0.244519
				0.244584
				0.244712
				0.244901
				0.245146
				0.245442
				0.245784
				0.246165
				0.24658
				0.247021
				0.247481
				0.247954
				0.248435
				0.248917
				0.249395
				0.249865
				0.250322
				0.250763
				0.251185
				0.251584
				0.251959
				0.252307
				0.252628
				0.252919
				0.25318
				0.253409
				0.253607
				0.253772
				0.253905
				0.254005
				0.254071
				0.254105
				0.254105
				0.254071
				0.254005
				0.253905
				0.253772
				0.253607
				0.253409
				0.25318
				0.252919
				0.252628
				0.252307
				0.251959
				0.251584
				0.251185
				0.250763
				0.250322
				0.249865
				0.249395
				0.248917
				0.248435
				0.247955
				0.247481
				0.247021
				0.24658
				0.246166
				0.245784
				0.245442
				0.245146
				0.244901
				0.244713
				0.244585
				0.244519
				0.244518
				0.244581
				0.244707
				0.244893
				0.245135
				0.245429
				0.245768
				0.246147
				0.246559
				0.246996
				0.247454
				0.247925
				0.248403
				0.248883
				0.249359
				0.249827
				0.250283
				0.250723
				0.251144
				0.251543
				0.251918
				0.252268
				0.252589
				0.252882
				0.253145
				0.253377
				0.253577
				0.253745
				0.253877
				0.253963
				0.253998
				0.254005
				0.253202
				0.253207
				0.253204
				0.253162
				0.253076
				0.252956
				0.252811
				0.252641
				0.252446
				0.252226
				0.251982
				0.251716
				0.251429
				0.251121
				0.250796
				0.250454
				0.250098
				0.249731
				0.249356
				0.248977
				0.248597
				0.248221
				0.247853
				0.247499
				0.247163
				0.246851
				0.246567
				0.246318
				0.246107
				0.245938
				0.245816
				0.245741
				0.245717
				0.245744
				0.24582
				0.245945
				0.246116
				0.246329
				0.246581
				0.246867
				0.247181
				0.24752
				0.247876
				0.248246
				0.248624
				0.249005
				0.249386
				0.249762
				0.25013
				0.250486
				0.250828
				0.251154
				0.251461
				0.251747
				0.252013
				0.252255
				0.252474
				0.252668
				0.252837
				0.252981
				0.253099
				0.253191
				0.253256
				0.253296
				0.253309
				0.253296
				0.253256
				0.253191
				0.253099
				0.252981
				0.252837
				0.252668
				0.252474
				0.252255
				0.252013
				0.251748
				0.251461
				0.251154
				0.250828
				0.250486
				0.25013
				0.249762
				0.249386
				0.249005
				0.248624
				0.248246
				0.247876
				0.24752
				0.247182
				0.246867
				0.246582
				0.24633
				0.246116
				0.245946
				0.245821
				0.245744
				0.245718
				0.245742
				0.245816
				0.245939
				0.246107
				0.246318
				0.246568
				0.246851
				0.247163
				0.247499
				0.247854
				0.248221
				0.248597
				0.248977
				0.249356
				0.249731
				0.250098
				0.250454
				0.250796
				0.251122
				0.251429
				0.251717
				0.251983
				0.252226
				0.252446
				0.252641
				0.252811
				0.252956
				0.253076
				0.253162
				0.253204
				0.253207
				0.252536
				0.252549
				0.252541
				0.252492
				0.25241
				0.252306
				0.252183
				0.25204
				0.251877
				0.251695
				0.251494
				0.251276
				0.251042
				0.250792
				0.250529
				0.250254
				0.249969
				0.249677
				0.249379
				0.24908
				0.248783
				0.24849
				0.248206
				0.247935
				0.24768
				0.247447
				0.247238
				0.247057
				0.246909
				0.246795
				0.246718
				0.24668
				0.246681
				0.246721
				0.2468
				0.246916
				0.247067
				0.247249
				0.24746
				0.247696
				0.247952
				0.248225
				0.248511
				0.248805
				0.249104
				0.249404
				0.249702
				0.249995
				0.25028
				0.250555
				0.250818
				0.251068
				0.251301
				0.251519
				0.251718
				0.2519
				0.252062
				0.252205
				0.252328
				0.252431
				0.252514
				0.252576
				0.252617
				0.252638
				0.252638
				0.252617
				0.252576
				0.252514
				0.252431
				0.252328
				0.252205
				0.252062
				0.2519
				0.251719
				0.251519
				0.251302
				0.251068
				0.250819
				0.250556
				0.25028
				0.249995
				0.249702
				0.249404
				0.249104
				0.248805
				0.248511
				0.248226
				0.247953
				0.247696
				0.247461
				0.24725
				0.247067
				0.246916
				0.2468
				0.246721
				0.246681
				0.24668
				0.246718
				0.246795
				0.246909
				0.247058
				0.247238
				0.247447
				0.247681
				0.247935
				0.248206
				0.24849
				0.248783
				0.249081
				0.24938
				0.249677
				0.249969
				0.250254
				0.250529
				0.250792
				0.251042
				0.251276
				0.251494
				0.251695
				0.251877
				0.25204
				0.252183
				0.252306
				0.25241
				0.252492
				0.252541
				0.252549
				0.252536
				0.251985
				0.251998
				0.252012
				0.251994
				0.251941
				0.251868
				0.25178
				0.251677
				0.251557
				0.251422
				0.251272
				0.251109
				0.250932
				0.250742
				0.250541
				0.250331
				0.250111
				0.249886
				0.249655
				0.249421
				0.249188
				0.248957
				0.248732
				0.248515
				0.248309
				0.248119
				0.247946
				0.247794
				0.247666
				0.247564
				0.24749
				0.247445
				0.247431
				0.247447
				0.247494
				0.24757
				0.247674
				0.247804
				0.247957
				0.248132
				0.248324
				0.248531
				0.248749
				0.248976
				0.249208
				0.249442
				0.249676
				0.249907
				0.250134
				0.250353
				0.250564
				0.250764
				0.250953
				0.25113
				0.251293
				0.251442
				0.251576
				0.251696
				0.2518
				0.251888
				0.25196
				0.252017
				0.252057
				0.252082
				0.25209
				0.252082
				0.252057
				0.252017
				0.25196
				0.251888
				0.2518
				0.251696
				0.251576
				0.251442
				0.251293
				0.25113
				0.250953
				0.250764
				0.250564
				0.250353
				0.250134
				0.249908
				0.249676
				0.249442
				0.249208
				0.248976
				0.248749
				0.248531
				0.248324
				0.248132
				0.247958
				0.247804
				0.247674
				0.24757
				0.247494
				0.247447
				0.247431
				0.247445
				0.24749
				0.247564
				0.247666
				0.247795
				0.247946
				0.248119
				0.24831
				0.248515
				0.248732
				0.248957
				0.249188
				0.249422
				0.249655
				0.249886
				0.250112
				0.250331
				0.250542
				0.250742
				0.250932
				0.251109
				0.251273
				0.251422
				0.251557
				0.251677
				0.25178
				0.251868
				0.251941
				0.251994
				0.252012
				0.251998
				0.251547
				0.251569
				0.251575
				0.251547
				0.251497
				0.251435
				0.251361
				0.251274
				0.251175
				0.251065
				0.250943
				0.25081
				0.250668
				0.250516
				0.250356
				0.250188
				0.250015
				0.249837
				0.249657
				0.249475
				0.249295
				0.249117
				0.248945
				0.248781
				0.248627
				0.248486
				0.248361
				0.248252
				0.248163
				0.248094
				0.248048
				0.248026
				0.248026
				0.248051
				0.248099
				0.248169
				0.24826
				0.24837
				0.248497
				0.24864
				0.248795
				0.24896
				0.249133
				0.249312
				0.249493
				0.249675
				0.249856
				0.250034
				0.250208
				0.250375
				0.250535
				0.250687
				0.250829
				0.250961
				0.251083
				0.251193
				0.251291
				0.251378
				0.251453
				0.251516
				0.251566
				0.251603
				0.251628
				0.251641
				0.251641
				0.251628
				0.251603
				0.251566
				0.251516
				0.251453
				0.251378
				0.251292
				0.251193
				0.251083
				0.250961
				0.250829
				0.250687
				0.250535
				0.250375
				0.250208
				0.250035
				0.249856
				0.249675
				0.249493
				0.249312
				0.249133
				0.24896
				0.248795
				0.24864
				0.248497
				0.24837
				0.24826
				0.248169
				0.248099
				0.248051
				0.248027
				0.248026
				0.248049
				0.248095
				0.248163
				0.248252
				0.248361
				0.248487
				0.248628
				0.248781
				0.248946
				0.249117
				0.249295
				0.249475
				0.249657
				0.249838
				0.250015
				0.250189
				0.250356
				0.250516
				0.250668
				0.25081
				0.250943
				0.251065
				0.251175
				0.251274
				0.251361
				0.251435
				0.251497
				0.251547
				0.251575
				0.251569
				0.251547
				0.251189
				0.251204