<VTKFile type="UnstructuredGrid" version="0.1" byte_order="LittleEndian">
<UnstructuredGrid>
	<Piece NumberOfPoints="288" NumberOfCells="512">
		<CellData Scalars="density" Vectors="velocity">
			<DataArray type="Float64" Name="density" Format="ascii">
				1.03124
				1.03219
				1.02551
				1.02892
				1.00555
				1.02091
				0.969845
				1.00184
				0.920508
				0.968906
				0.864387
				0.925367
				0.81243
				0.879848
				0.779428
				0.844571
				0.779919
				0.832306
				0.813133
				0.847474
				0.865075
				0.881903
				0.922902
				0.924774
				0.977635
				0.968266
				1.02316
				1.00738
				1.0566
				1.03844
				1.07759
				1.05621
				1.0776
				1.06278
				1.05667
				1.05626
				1.02331
				1.03854
				0.977862
				1.00753
				0.923206
				0.96847
				0.865464
				0.925041
				0.813608
				0.882238
				0.78046
				0.847877
				0.779959
				0.832745
				0.81288
				0.844984
				0.864729
				0.880191
				0.920705
				0.925611
				0.969897
				0.969018
				1.00559
				1.00185
				1.02606
				1.02101
				1.03687
				1.02855
				1.02478
				1.02531
				1.02371
				1.02836
				1.01589
				1.0208
				1.00078
				1.00507
				0.981243
				0.985064
				0.96019
				0.961816
				0.94114
				0.937064
				0.92908
				0.915649
				0.928821
				0.905567
				0.940948
				0.912409
				0.961248
				0.933642
				0.984395
				0.961966
				1.00633
				0.990941
				1.02442
				1.01653
				1.03707
				1.03638
				1.04376
				1.04826
				1.04377
				1.04798
				1.03711
				1.04829
				1.02449
				1.03645
				1.00643
				1.01663
				0.984533
				0.991088
				0.961426
				0.962162
				0.941165
				0.93389
				0.929062
				0.9127
				0.929313
				0.905868
				0.941335
				0.915907
				0.960348
				0.93726
				0.981397
				0.961991
				1.00098
				0.985331
				1.01615
				1.00555
				1.02385
				1.02128
				1.02458
				1.0274
				1.01571
				1.01618
				1.01755
				1.01693
				1.01142
				1.01651
				1.00119
				1.0092
				0.987724
				0.999358
				0.972968
				0.988359
				0.96005
				0.977363
				0.952601
				0.96859
				0.953143
				0.964669
				0.961667
				0.967034
				0.975642
				0.974824
				0.991719
				0.985708
				1.00708
				0.997199
				1.01979
				1.00744
				1.02859
				1.01532
				1.03257
				1.0201
				1.03258
				1.0216
				1.02862
				1.02012
				1.01985
				1.01536
				1.00716
				1.0075
				0.991827
				0.997279
				0.975778
				0.985811
				0.961829
				0.974948
				0.953321
				0.967175
				0.952782
				0.964818
				0.960221
				0.968735
				0.973109
				0.977492
				0.987798
				0.988458
				1.00113
				0.999414
				1.01119
				1.0092
				1.01757
				1.01634
				1.01649
				1.01549
				1.00456
				0.999212
				1.00656
				1.00775
				1.00442
				1.00617
				1.00113
				1.00243
				0.997279
				0.997629
				0.993327
				0.992644
				0.990059
				0.988277
				0.988326
				0.985436
				0.988711
				0.985003
				0.991147
				0.987298
				0.995009
				0.991806
				0.999425
				0.997477
				1.00362
				1.00319
				1.00707
				1.00808
				1.00949
				1.01164
				1.0108
				1.01369
				1.0108
				1.01374
				1.00951
				1.0137
				1.00709
				1.01167
				1.00366
				1.00811
				0.999474
				1.00324
				0.995069
				0.997541
				0.991216
				0.991883
				0.988786
				0.987385
				0.988402
				0.985094
				0.990133
				0.985526
				0.9934
				0.988365
				0.997359
				0.992744
				1.00124
				0.99778
				1.00459
				1.00268
				1.0068
				1.00644
				1.00438
				1.00765
				1.00149
				1.00209
				1.00446
				1.00268
				1.00273
				1.00328
				1.00073
				1.00207
				0.998402
				1.00039
				0.996005
				0.998541
				0.993992
				0.996839
				0.992898
				0.995575
				0.993081
				0.995034
				0.994543
				0.995391
				0.996902
				0.996565
				0.999616
				0.998241
				1.0022
				1.00003
				1.00434
				1.00162
				1.00586
				1.0028
				1.00664
				1.00347
				1.00664
				1.00366
				1.00587
				1.00348
				1.00437
				1.00282
				1.00223
				1.00164
				0.999655
				1.00006
				0.996949
				0.998277
				0.994597
				0.996609
				0.99314
				0.995439
				0.992959
				0.995085
				0.994052
				0.995626
				0.996056
				0.996887
				0.998434
				0.998582
				1.00073
				1.00042
				1.00269
				1.00208
				1.00449
				1.00323
				1.00081
				1.00227
				0.999638
				0.996111
				1.00078
				1.00167
				1.00047
				1.00053
				1
				1.0001
				0.999501
				0.999469
				0.999015
				0.998814
				0.99864
				0.998294
				0.998488
				0.998054
				0.998629
				0.998178
				0.999037
				0.998651
				0.99962
				0.999374
				1.00026
				1.00021
				1.00086
				1.00101
				1.00135
				1.00167
				1.00169
				1.00213
				1.00188
				1.00237
				1.00188
				1.00239
				1.0017
				1.00237
				1.00136
				1.00214
				1.00087
				1.00168
				1.00028
				1.00103
				0.999642
				1.00023
				0.999061
				0.999401
				0.998655
				0.998681
				0.998515
				0.998209
				0.998667
				0.998086
				0.999041
				0.998326
				0.999527
				0.998847
				1.00003
				0.999509
				1.00051
				1.00016
				1.00082
				1.00058
				0.999411
				1.00175
				0.999647
				0.999877
				1.00066
				1.00007
				1.00035
				1.00035
				1.0001
				1.00021
				0.99982
				1.00004
				0.999544
				0.999856
				0.999319
				0.999681
				0.999205
				0.999559
				0.999245
				0.999521
				0.999446
				0.999582
				0.999764
				0.999738
				1.00013
				0.999952
				1.00048
				1.00018
				1.00078
				1.00038
				1.00099
				1.00052
				1.00111
				1.0006
				1.00112
				1.00061
				1.001
				1.0006
				1.00079
				1.00053
				1.0005
				1.00039
				1.00015
				1.00019
				0.99978
				0.999965
				0.999465
				0.999753
				0.999265
				0.999599
				0.999226
				0.999538
				0.99934
				0.999576
				0.999563
				0.999697
				0.999837
				0.999872
				1.00011
				1.00006
				1.00035
				1.00022
				1.00068
				1.00035
				0.999053
				0.999976
				0.999578
				0.99866
				1.00004
				1.00038
				1.00002
				0.999911
				0.999982
				0.999913
				0.999934
				0.999873
				0.999891
				0.999829
				0.999868
				0.9998
				0.99988
				0.999806
				0.999938
				0.99986
				1.00003
				0.999963
				1.00015
				1.0001
				1.00027
				1.00025
				1.00037
				1.00038
				1.00045
				1.00048
				1.00051
				1.00055
				1.00054
				1.00058
				1.00054
				1.00058
				1.00051
				1.00058
				1.00045
				1.00055
				1.00037
				1.00049
				1.00027
				1.00039
				1.00016
				1.00026
				1.00004
				1.00011
				0.999949
				0.999975
				0.999892
				0.999872
				0.999879
				0.999817
				0.9999
				0.999808
				0.99994
				0.999835
				0.999985
				0.999876
				1.00002
				0.999913
				1.00003
				0.999908
				0.999375
				1.00048
			</DataArray>
			<DataArray type="Float64" Name="mach-number" Format="ascii">
				0.0556923
				0.0707096
				0.140709
				0.115397
				0.251755
				0.208544
				0.374914
				0.31632
				0.501297
				0.42737
				0.621656
				0.533835
				0.723717
				0.626733
				0.787692
				0.693321
				0.791074
				0.718132
				0.736199
				0.695161
				0.646409
				0.635335
				0.539892
				0.553062
				0.426321
				0.458275
				0.310717
				0.357126
				0.195229
				0.255131
				0.0920006
				0.164589
				0.0917056
				0.150388
				0.194789
				0.164228
				0.310226
				0.254717
				0.425776
				0.356674
				0.539277
				0.457777
				0.645695
				0.552504
				0.735359
				0.634703
				0.790125
				0.694451
				0.786757
				0.717386
				0.722914
				0.692623
				0.621017
				0.626128
				0.500917
				0.53334
				0.375012
				0.42703
				0.252581
				0.316218
				0.143084
				0.208892
				0.059412
				0.119307
				0.186527
				0.136337
				0.260063
				0.193577
				0.324441
				0.273024
				0.381687
				0.347291
				0.435584
				0.415231
				0.486783
				0.478576
				0.530609
				0.53669
				0.557627
				0.582534
				0.558407
				0.603347
				0.531627
				0.589893
				0.484738
				0.545911
				0.427143
				0.482884
				0.366563
				0.411078
				0.309541
				0.337535
				0.263701
				0.268574
				0.239712
				0.215268
				0.23965
				0.230306
				0.263532
				0.215037
				0.309305
				0.268311
				0.366267
				0.337217
				0.426787
				0.410698
				0.48432
				0.482435
				0.531149
				0.54539
				0.557892
				0.58931
				0.557131
				0.602759
				0.530189
				0.582024
				0.486442
				0.536288
				0.435235
				0.478185
				0.381122
				0.414545
				0.323436
				0.345872
				0.258558
				0.270547
				0.181758
				0.196782
				0.235218
				0.237537
				0.299892
				0.296287
				0.336103
				0.331505
				0.368199
				0.355113
				0.403989
				0.381575
				0.440971
				0.411368
				0.472227
				0.439351
				0.490408
				0.459554
				0.490681
				0.467008
				0.472964
				0.45966
				0.441697
				0.439654
				0.403138
				0.411709
				0.363267
				0.381014
				0.327385
				0.352191
				0.300271
				0.329044
				0.282152
				0.314055
				0.282122
				0.313787
				0.300167
				0.313996
				0.327218
				0.328933
				0.363047
				0.35203
				0.402869
				0.380806
				0.44138
				0.411457
				0.472605
				0.439364
				0.490297
				0.45934
				0.490018
				0.466673
				0.471855
				0.45922
				0.440661
				0.439033
				0.403862
				0.411098
				0.368481
				0.381437
				0.336977
				0.35524
				0.300426
				0.332073
				0.227473
				0.297698
				0.326832
				0.277622
				0.360121
				0.351201
				0.368536
				0.359849
				0.379345
				0.371829
				0.390972
				0.386312
				0.401388
				0.401142
				0.409204
				0.413608
				0.412915
				0.421608
				0.411316
				0.42333
				0.404485
				0.418071
				0.393898
				0.406869
				0.381732
				0.392121
				0.370059
				0.376627
				0.360403
				0.362798
				0.353665
				0.352284
				0.349914
				0.346229
				0.349898
				0.346037
				0.353617
				0.346192
				0.360324
				0.352211
				0.36995
				0.362688
				0.381593
				0.376481
				0.393732
				0.391943
				0.404297
				0.406662
				0.411114
				0.417843
				0.41271
				0.423093
				0.409004
				0.421374
				0.401186
				0.413373
				0.390732
				0.400862
				0.379009
				0.385891
				0.368074
				0.371173
				0.359927
				0.358884
				0.32334
				0.353508
				0.342734
				0.336878
				0.36843
				0.367288
				0.372538
				0.372923
				0.378421
				0.376945
				0.384693
				0.381186
				0.390874
				0.385625
				0.396139
				0.389974
				0.399164
				0.393241
				0.398927
				0.394414
				0.395341
				0.393037
				0.389296
				0.389461
				0.382144
				0.384588
				0.37516
				0.37945
				0.369275
				0.374894
				0.365049
				0.371486
				0.362304
				0.36956
				0.362292
				0.369491
				0.365014
				0.369541
				0.369218
				0.371447
				0.37508
				0.374836
				0.382043
				0.379373
				0.389175
				0.384493
				0.395203
				0.389351
				0.398778
				0.392915
				0.39901
				0.394285
				0.395989
				0.393111
				0.390744
				0.389851
				0.384609
				0.385522
				0.378414
				0.381116
				0.372651
				0.376916
				0.368798
				0.372968
				0.338149
				0.367038
				0.368891
				0.343645
				0.379221
				0.383793
				0.379896
				0.378299
				0.380952
				0.380531
				0.382148
				0.382064
				0.383351
				0.383758
				0.384183
				0.385236
				0.384394
				0.386032
				0.383888
				0.385892
				0.382747
				0.384828
				0.381196
				0.38307
				0.379533
				0.380973
				0.37802
				0.378916
				0.376827
				0.377204
				0.376017
				0.376033
				0.375489
				0.375513
				0.375484
				0.375593
				0.376001
				0.3755
				0.3768
				0.376007
				0.377982
				0.377165
				0.379485
				0.378864
				0.381139
				0.38091
				0.382682
				0.382997
				0.383818
				0.384748
				0.384323
				0.385808
				0.384113
				0.385948
				0.383281
				0.385152
				0.382075
				0.383671
				0.38087
				0.381964
				0.379789
				0.380403
				0.379236
				0.377944
				0.367124
				0.384943
				0.372453
				0.369032
				0.37949
				0.378933
				0.380007
				0.38028
				0.380427
				0.38034
				0.381105
				0.380729
				0.381845
				0.381233
				0.382465
				0.381714
				0.382798
				0.382057
				0.382712
				0.382146
				0.382184
				0.381918
				0.381327
				0.381412
				0.380326
				0.380743
				0.379357
				0.380048
				0.37855
				0.379442
				0.377993
				0.379014
				0.37757
				0.378835
				0.377566
				0.378891
				0.377981
				0.378829
				0.37853
				0.379001
				0.37933
				0.379423
				0.380291
				0.380022
				0.381286
				0.380711
				0.382137
				0.381375
				0.382661
				0.381878
				0.382746
				0.382104
				0.382414
				0.382015
				0.381797
				0.381675
				0.381063
				0.381199
				0.380395
				0.380703
				0.380002
				0.380323
				0.379611
				0.380288
				0.369961
				0.378387
				0.378221
				0.36959
				0.380917
				0.382676
				0.380625
				0.380782
				0.380663
				0.380811
				0.380711
				0.380898
				0.380744
				0.380999
				0.380734
				0.381064
				0.380652
				0.381045
				0.380488
				0.380915
				0.380261
				0.380677
				0.380006
				0.380368
				0.379759
				0.380042
				0.379548
				0.379748
				0.379389
				0.379524
				0.379287
				0.379395
				0.379236
				0.379411
				0.379234
				0.379473
				0.379282
				0.379408
				0.379382
				0.379387
				0.379537
				0.379512
				0.379745
				0.379732
				0.37999
				0.380022
				0.380243
				0.380346
				0.38047
				0.380653
				0.380634
				0.380891
				0.380719
				0.381023
				0.380733
				0.381045
				0.380706
				0.380987
				0.380663
				0.380893
				0.380629
				0.380815
				0.380942
				0.380772
				0.377731
				0.382809
			</DataArray>
			<DataArray type="Float64" Name="pressure" Format="ascii">
				5.24708
				5.2456
				5.19005
				5.2214
				5.04228
				5.14973
				4.79015
				5.00277
				4.45204
				4.76644
				4.07722
				4.46784
				3.7376
				4.16603
				3.52409
				3.93731
				3.5227
				3.85724
				3.72793
				3.95151
				4.0571
				4.17219
				4.43278
				4.45353
				4.79713
				4.74454
				5.10672
				5.00999
				5.33752
				5.22269
				5.48632
				5.34485
				5.48643
				5.37521
				5.33805
				5.34522
				5.10778
				5.22338
				4.79869
				5.011
				4.43482
				4.74592
				4.05963
				4.45532
				3.73095
				4.17439
				3.52608
				3.9541
				3.52742
				3.86003
				3.74045
				3.93993
				4.07944
				4.16824
				4.45334
				4.46945
				4.79043
				4.76717
				5.04214
				5.00273
				5.19186
				5.15015
				5.26138
				5.21789
				5.17834
				5.1944
				5.14361
				5.19359
				5.07013
				5.11854
				4.95531
				4.9979
				4.8147
				4.85218
				4.66612
				4.68794
				4.5335
				4.51649
				4.4508
				4.36977
				4.44992
				4.29992
				4.53398
				4.34341
				4.67454
				4.48481
				4.83578
				4.67735
				4.98966
				4.87792
				5.11712
				5.05793
				5.20589
				5.20004
				5.25279
				5.28919
				5.25287
				5.29376
				5.20618
				5.28944
				5.11761
				5.20049
				4.99037
				5.05865
				4.83674
				4.87894
				4.67577
				4.6787
				4.53546
				4.48649
				4.45155
				4.34536
				4.45237
				4.30191
				4.53483
				4.37148
				4.66719
				4.5178
				4.81574
				4.68913
				4.95676
				4.85402
				5.07217
				5.00122
				5.14543
				5.12186
				5.17845
				5.19028
				5.10955
				5.1134
				5.08448
				5.09383
				5.03215
				5.06751
				4.95802
				5.01254
				4.86439
				4.94395
				4.76329
				4.86831
				4.67553
				4.79331
				4.62515
				4.73391
				4.62866
				4.70756
				4.68609
				4.72382
				4.78083
				4.77692
				4.89058
				4.85107
				4.99619
				4.92944
				5.0841
				4.99932
				5.14539
				5.05306
				5.17578
				5.08561
				5.17586
				5.09444
				5.14563
				5.08574
				5.0845
				5.05332
				4.99675
				4.99972
				4.89132
				4.92998
				4.78176
				4.85177
				4.68718
				4.77776
				4.62986
				4.72477
				4.62637
				4.70857
				4.67668
				4.73489
				4.76424
				4.7942
				4.86487
				4.86899
				4.95756
				4.94432
				5.03052
				5.01243
				5.08419
				5.0662
				5.11831
				5.08516
				5.00554
				5.00337
				4.99423
				5.00626
				4.97672
				4.99033
				4.95325
				4.96331
				4.92601
				4.92955
				4.89822
				4.89464
				4.87532
				4.86413
				4.86324
				4.8443
				4.8661
				4.8412
				4.88338
				4.85705
				4.91066
				4.88833
				4.94182
				4.92784
				4.97138
				4.96782
				4.99559
				5.0022
				5.01248
				5.02743
				5.02157
				5.04222
				5.0216
				5.04456
				5.01259
				5.0423
				4.99578
				5.0276
				4.97164
				5.00246
				4.94217
				4.96818
				4.91108
				4.92829
				4.88386
				4.88886
				4.86662
				4.85766
				4.86377
				4.84184
				4.87584
				4.84492
				4.89873
				4.86475
				4.92657
				4.89534
				4.95401
				4.9306
				4.97792
				4.96501
				4.9959
				4.99216
				5.00618
				5.00451
				4.9801
				4.98557
				4.97616
				4.97129
				4.96478
				4.96851
				4.951
				4.96025
				4.93509
				4.94899
				4.91878
				4.93659
				4.90509
				4.92512
				4.89766
				4.91654
				4.89897
				4.91282
				4.90906
				4.9152
				4.92531
				4.92319
				4.94403
				4.93464
				4.9619
				4.9469
				4.9767
				4.9578
				4.98717
				4.96595
				4.99272
				4.97057
				4.99275
				4.9718
				4.98726
				4.97062
				4.97685
				4.96605
				4.96211
				4.95796
				4.9443
				4.9471
				4.92564
				4.93489
				4.90943
				4.92349
				4.89938
				4.91553
				4.89808
				4.91317
				4.9055
				4.91689
				4.91913
				4.92545
				4.93531
				4.93687
				4.95099
				4.9492
				4.96447
				4.9603
				4.97601
				4.96818
				4.98003
				4.96965
				4.95252
				4.95177
				4.95131
				4.95256
				4.94955
				4.95
				4.94653
				4.94702
				4.94309
				4.9428
				4.93969
				4.93834
				4.93704
				4.93476
				4.93596
				4.93308
				4.93694
				4.93392
				4.9398
				4.93718
				4.94388
				4.94219
				4.94836
				4.94797
				4.95252
				4.95353
				4.9559
				4.95813
				4.9583
				4.96134
				4.9596
				4.96301
				4.95962
				4.96327
				4.95834
				4.96305
				4.95597
				4.9614
				4.95262
				4.95823
				4.94849
				4.95366
				4.94403
				4.94813
				4.93997
				4.94238
				4.93713
				4.93739
				4.93615
				4.93413
				4.93723
				4.9333
				4.93987
				4.93498
				4.94328
				4.93857
				4.94673
				4.94307
				4.94983
				4.94739
				4.95159
				4.95039
				4.95244
				4.95227
				4.95039
				4.95324
				4.95037
				4.94846
				4.94885
				4.94886
				4.94723
				4.94803
				4.94533
				4.94688
				4.94341
				4.94558
				4.94186
				4.94438
				4.94108
				4.94355
				4.94136
				4.94329
				4.94275
				4.94371
				4.94495
				4.94478
				4.94749
				4.94625
				4.94993
				4.94782
				4.95198
				4.9492
				4.95347
				4.95019
				4.95429
				4.9507
				4.95431
				4.9508
				4.9535
				4.95072
				4.95203
				4.95023
				4.95001
				4.94926
				4.94758
				4.94789
				4.94506
				4.94634
				4.94288
				4.94488
				4.9415
				4.94382
				4.94122
				4.9434
				4.942
				4.94367
				4.94355
				4.94449
				4.94544
				4.94569
				4.94731
				4.94697
				4.94888
				4.94809
				4.95035
				4.94885
				4.94965
				4.94854
				4.94625
				4.9472
				4.94676
				4.94677
				4.94675
				4.94608
				4.94645
				4.94598
				4.94612
				4.9457
				4.94582
				4.94539
				4.94566
				4.94519
				4.94574
				4.94523
				4.94614
				4.94561
				4.9468
				4.94632
				4.94761
				4.94728
				4.94842
				4.94828
				4.94913
				4.94919
				4.94969
				4.9499
				4.95008
				4.95036
				4.9503
				4.95058
				4.95031
				4.9506
				4.9501
				4.95059
				4.94972
				4.95039
				4.94917
				4.94994
				4.94847
				4.94925
				4.94768
				4.94835
				4.94688
				4.94735
				4.94622
				4.9464
				4.94582
				4.94569
				4.94573
				4.94531
				4.94588
				4.94525
				4.94616
				4.94544
				4.94647
				4.94572
				4.94675
				4.94598
				4.94668
				4.94609
				4.94567
				4.94704
			</DataArray>
			<DataArray type="Float64" Name="velocity" NumberOfComponents="3" Format="ascii">
				0.11705 -0.0916159 0.0 
				0.188437 0.00801274 0.0 
				0.226826 -0.298049 0.0 
				0.253451 -0.174266 0.0 
				0.438385 -0.502758 0.0 
				0.426518 -0.353855 0.0 
				0.735769 -0.656185 0.0 
				0.667508 -0.503932 0.0 
				1.09129 -0.714605 0.0 
				0.952258 -0.592548 0.0 
				1.46059 -0.647076 0.0 
				1.25501 -0.592663 0.0 
				1.78236 -0.443414 0.0 
				1.53924 -0.484277 0.0 
				1.97784 -0.124987 0.0 
				1.75132 -0.264931 0.0 
				1.97472 0.240145 0.0 
				1.82893 0.0325347 0.0 
				1.77987 0.557519 0.0 
				1.74453 0.333395 0.0 
				1.46852 0.766129 0.0 
				1.53424 0.565313 0.0 
				1.11391 0.848072 0.0 
				1.25736 0.693756 0.0 
				0.770582 0.809169 0.0 
				0.965463 0.713161 0.0 
				0.476799 0.668787 0.0 
				0.697236 0.633923 0.0 
				0.256477 0.45141 0.0 
				0.479473 0.477938 0.0 
				0.167923 0.179254 0.0 
				0.338879 0.277631 0.0 
				0.167775 -0.178315 0.0 
				0.400177 0.000470294 0.0 
				0.256091 -0.450295 0.0 
				0.338451 -0.276645 0.0 
				0.476235 -0.667627 0.0 
				0.479035 -0.476838 0.0 
				0.769761 -0.808051 0.0 
				0.696632 -0.632856 0.0 
				1.11281 -0.847044 0.0 
				0.964634 -0.712172 0.0 
				1.46708 -0.765239 0.0 
				1.25628 -0.692883 0.0 
				1.77807 -0.556856 0.0 
				1.53289 -0.564619 0.0 
				1.97262 -0.239844 0.0 
				1.74292 -0.332985 0.0 
				1.97575 0.124838 0.0 
				1.8272 -0.0325276 0.0 
				1.78059 0.442891 0.0 
				1.74974 0.264532 0.0 
				1.45924 0.646354 0.0 
				1.53793 0.483639 0.0 
				1.0905 0.714096 0.0 
				1.25392 0.592116 0.0 
				0.735612 0.656752 0.0 
				0.951137 0.592699 0.0 
				0.438577 0.505461 0.0 
				0.665987 0.505472 0.0 
				0.231015 0.302757 0.0 
				0.424759 0.357393 0.0 
				0.128729 0.0922197 0.0 
				0.272247 0.164243 0.0 
				0.492618 -0.0588233 0.0 
				0.362617 0.018574 0.0 
				0.668028 -0.171727 0.0 
				0.497563 -0.131824 0.0 
				0.814533 -0.268359 0.0 
				0.673345 -0.264361 0.0 
				0.949172 -0.330098 0.0 
				0.843512 -0.35798 0.0 
				1.08778 -0.346545 0.0 
				1.01211 -0.40575 0.0 
				1.23161 -0.30862 0.0 
				1.18422 -0.400616 0.0 
				1.36165 -0.211216 0.0 
				1.35443 -0.33033 0.0 
				1.44276 -0.0624867 0.0 
				1.49406 -0.187143 0.0 
				1.44222 0.107003 0.0 
				1.55556 0.0125794 0.0 
				1.35719 0.254224 0.0 
				1.50707 0.218665 0.0 
				1.21563 0.349259 0.0 
				1.36481 0.376109 0.0 
				1.05277 0.382717 0.0 
				1.17348 0.458505 0.0 
				0.896674 0.35876 0.0 
				0.973701 0.465265 0.0 
				0.766643 0.28691 0.0 
				0.792713 0.406496 0.0 
				0.67631 0.176928 0.0 
				0.648192 0.294169 0.0 
				0.634651 0.0454925 0.0 
				0.554242 0.141997 0.0 
				0.634553 -0.0445603 0.0 
				0.612457 0.000536734 0.0 
				0.676063 -0.176124 0.0 
				0.553854 -0.141058 0.0 
				0.766276 -0.286137 0.0 
				0.647832 -0.293298 0.0 
				0.896154 -0.358009 0.0 
				0.792232 -0.405634 0.0 
				1.05206 -0.382015 0.0 
				0.97303 -0.464428 0.0 
				1.21471 -0.348653 0.0 
				1.17258 -0.457732 0.0 
				1.35607 -0.253778 0.0 
				1.36367 -0.375468 0.0 
				1.44098 -0.106789 0.0 
				1.50571 -0.218262 0.0 
				1.44155 0.0624411 0.0 
				1.55415 -0.0125243 0.0 
				1.36064 0.210966 0.0 
				1.49285 0.186874 0.0 
				1.23085 0.308181 0.0 
				1.35351 0.329918 0.0 
				1.08713 0.345699 0.0 
				1.1833 0.400274 0.0 
				0.948281 0.32827 0.0 
				1.01036 0.405436 0.0 
				0.812938 0.264902 0.0 
				0.84002 0.356843 0.0 
				0.664952 0.167917 0.0 
				0.667735 0.260869 0.0 
				0.477989 0.0726977 0.0 
				0.507678 0.127026 0.0 
				0.623141 -0.0367948 0.0 
				0.630467 0.00206772 0.0 
				0.783918 -0.12088 0.0 
				0.7818 -0.0663335 0.0 
				0.869885 -0.173666 0.0 
				0.868075 -0.115923 0.0 
				0.94653 -0.209732 0.0 
				0.924649 -0.148006 0.0 
				1.03764 -0.220407 0.0 
				0.991078 -0.161808 0.0 
				1.13776 -0.195659 0.0 
				1.06951 -0.151987 0.0 
				1.22599 -0.131796 0.0 
				1.14552 -0.114593 0.0 
				1.27808 -0.0360092 0.0 
				1.20104 -0.0504571 0.0 
				1.27736 0.0724494 0.0 
				1.22028 0.0305566 0.0 
				1.22381 0.168346 0.0 
				1.19701 0.110019 0.0 
				1.13341 0.231917 0.0 
				1.13897 0.169806 0.0 
				1.02804 0.255277 0.0 
				1.06202 0.199997 0.0 
				0.926693 0.240391 0.0 
				0.982292 0.199442 0.0 
				0.842784 0.194415 0.0 
				0.91215 0.172403 0.0 
				0.784469 0.126687 0.0 
				0.859394 0.125748 0.0 
				0.746047 0.0455738 0.0 
				0.826928 0.0677234 0.0 
				0.74601 -0.0449084 0.0 
				0.829099 0.000294446 0.0 
				0.784302 -0.126031 0.0 
				0.826821 -0.0671379 0.0 
				0.842488 -0.19378 0.0 
				0.859189 -0.125173 0.0 
				0.926267 -0.239786 0.0 
				0.911831 -0.171851 0.0 
				1.02747 -0.254721 0.0 
				0.981854 -0.198925 0.0 
				1.13269 -0.231447 0.0 
				1.06145 -0.199537 0.0 
				1.22295 -0.16801 0.0 
				1.13829 -0.169439 0.0 
				1.27642 -0.0722907 0.0 
				1.19623 -0.109788 0.0 
				1.27711 0.0359831 0.0 
				1.21945 -0.0304989 0.0 
				1.22508 0.131611 0.0 
				1.20021 0.0503504 0.0 
				1.13702 0.195335 0.0 
				1.14473 0.114419 0.0 
				1.03741 0.219964 0.0 
				1.06882 0.151962 0.0 
				0.947362 0.209332 0.0 
				0.990647 0.162256 0.0 
				0.872164 0.173803 0.0 
				0.924788 0.149192 0.0 
				0.785042 0.122667 0.0 
				0.869405 0.11699 0.0 
				0.602745 0.0382228 0.0 
				0.785869 0.0610292 0.0 
				0.862909 -0.0234828 0.0 
				0.735042 0.00471615 0.0 
				0.948409 -0.0370803 0.0 
				0.925566 -0.0339652 0.0 
				0.969107 -0.0545484 0.0 
				0.946304 -0.0603716 0.0 
				0.996287 -0.0647166 0.0 
				0.975774 -0.0789508 0.0 
				1.02602 -0.0659222 0.0 
				1.01234 -0.0868927 0.0 
				1.05309 -0.0569439 0.0 
				1.05079 -0.0816709 0.0 
				1.07377 -0.0372724 0.0 
				1.08388 -0.0631179 0.0 
				1.08373 -0.00896088 0.0 
				1.10557 -0.0324679 0.0 
				1.07945 0.0224554 0.0 
				1.11044 0.00587158 0.0 
				1.06116 0.0496542 0.0 
				1.0963 0.043874 0.0 
				1.03322 0.0669849 0.0 
				1.06627 0.0730918 0.0 
				1.00176 0.0722808 0.0 
				1.02746 0.0882095 0.0 
				0.972247 0.0664581 0.0 
				0.987735 0.0882461 0.0 
				0.948333 0.0521439 0.0 
				0.953246 0.075482 0.0 
				0.931901 0.0323602 0.0 
				0.927664 0.0536788 0.0 
				0.922755 0.0101124 0.0 
				0.913269 0.0267499 0.0 
				0.922718 -0.00973521 0.0 
				0.913344 0.000221168 0.0 
				0.93179 -0.0319913 0.0 
				0.913188 -0.0263111 0.0 
				0.94815 -0.0517886 0.0 
				0.927498 -0.0532519 0.0 
				0.971989 -0.0661279 0.0 
				0.952994 -0.0750768 0.0 
				1.00142 -0.0719894 0.0 
				0.987394 -0.0878766 0.0 
				1.03281 -0.0667484 0.0 
				1.02703 -0.0878937 0.0 
				1.06069 -0.049491 0.0 
				1.06576 -0.0728518 0.0 
				1.07894 -0.0223819 0.0 
				1.09573 -0.0437339 0.0 
				1.08321 0.00893373 0.0 
				1.10984 -0.00584868 0.0 
				1.07327 0.0371383 0.0 
				1.10498 0.0323818 0.0 
				1.05259 0.0566889 0.0 
				1.08329 0.0629755 0.0 
				1.02543 0.0655017 0.0 
				1.05009 0.0815616 0.0 
				0.995468 0.0640354 0.0 
				1.01127 0.0868662 0.0 
				0.967978 0.0535539 0.0 
				0.974096 0.0788581 0.0 
				0.947983 0.0360599 0.0 
				0.943843 0.0597167 0.0 
				0.853681 0.0278543 0.0 
				0.931637 0.0311735 0.0 
				0.904298 -0.00454997 0.0 
				0.88908 0.000126372 0.0 
				0.970048 -0.0213695 0.0 
				0.967619 -0.00915038 0.0 
				0.980363 -0.0302101 0.0 
				0.981789 -0.017286 0.0 
				0.995284 -0.0357551 0.0 
				0.992054 -0.0222171 0.0 
				1.01132 -0.0365296 0.0 
				1.00288 -0.0241698 0.0 
				1.02729 -0.0314978 0.0 
				1.01427 -0.0221651 0.0 
				1.04103 -0.0198985 0.0 
				1.02553 -0.0153526 0.0 
				1.04895 -0.00293515 0.0 
				1.03398 -0.00430811 0.0 
				1.04826 0.0159843 0.0 
				1.03692 0.00895705 0.0 
				1.03875 0.0325197 0.0 
				1.03318 0.0215346 0.0 
				1.02293 0.0433175 0.0 
				1.02377 0.0308071 0.0 
				1.00448 0.0470161 0.0 
				1.01113 0.0352505 0.0 
				0.986723 0.044006 0.0 
				0.997968 0.0346753 0.0 
				0.971969 0.035607 0.0 
				0.986433 0.0298313 0.0 
				0.961494 0.0233426 0.0 
				0.977894 0.0218289 0.0 
				0.954667 0.0084421 0.0 
				0.973122 0.0117292 0.0 
				0.954639 -0.00816264 0.0 
				0.973043 0.000118406 0.0 
				0.961411 -0.02307 0.0 
				0.973076 -0.0114954 0.0 
				0.971831 -0.0353475 0.0 
				0.9778 -0.0216042 0.0 
				0.986529 -0.0437671 0.0 
				0.986291 -0.0296213 0.0 
				1.00423 -0.0468076 0.0 
				0.997778 -0.0344874 0.0 
				1.02263 -0.0431511 0.0 
				1.01089 -0.035094 0.0 
				1.0384 -0.0324077 0.0 
				1.02349 -0.0306928 0.0 
				1.04788 -0.0159374 0.0 
				1.03287 -0.0214728 0.0 
				1.04856 0.00290979 0.0 
				1.03659 -0.00895427 0.0 
				1.04065 0.0197947 0.0 
				1.03365 0.00425516 0.0 
				1.02697 0.0313087 0.0 
				1.02521 0.0152614 0.0 
				1.01112 0.0362545 0.0 
				1.01401 0.022069 0.0 
				0.995277 0.0354181 0.0 
				1.0027 0.0241179 0.0 
				0.980662 0.0298687 0.0 
				0.991977 0.0222473 0.0 
				0.970991 0.021359 0.0 
				0.981902 0.0172476 0.0 
				0.892498 0.00411889 0.0 
				0.967004 0.00845882 0.0 
				0.971504 -0.0062323 0.0 
				0.906566 0.00106641 0.0 
				0.998027 -0.00446194 0.0 
				1.00974 -0.00353555 0.0 
				0.999769 -0.00663585 0.0 
				0.995574 -0.00796985 0.0 
				1.00247 -0.00782703 0.0 
				1.00134 -0.00971238 0.0 
				1.00552 -0.00784707 0.0 
				1.00526 -0.0106535 0.0 
				1.00859 -0.00643184 0.0 
				1.0096 -0.009774 0.0 
				1.01071 -0.00373125 0.0 
				1.01341 -0.00689942 0.0 
				1.01124 -0.00013577 0.0 
				1.01547 -0.00255081 0.0 
				1.00993 0.00369908 0.0 
				1.01513 0.00237593 0.0 
				1.007 0.00695284 0.0 
				1.0124 0.00688262 0.0 
				1.00303 0.00894699 0.0 
				1.0079 0.0101326 0.0 
				0.998775 0.00940623 0.0 
				1.00253 0.0116058 0.0 
				0.994923 0.00845768 0.0 
				0.997281 0.0112286 0.0 
				0.991896 0.00646989 0.0 
				0.992928 0.00931178 0.0 
				0.989847 0.00389186 0.0 
				0.989961 0.00638328 0.0 
				0.9885 0.00125244 0.0 
				0.988658 0.00303688 0.0 
				0.988486 -0.00113407 0.0 
				0.988888 7.37238e-05 0.0 
				0.989806 -0.00377658 0.0 
				0.988626 -0.00289106 0.0 
				0.991827 -0.00636169 0.0 
				0.989896 -0.00624357 0.0 
				0.994827 -0.00836105 0.0 
				0.99283 -0.00918311 0.0 
				0.998653 -0.00932626 0.0 
				0.997151 -0.0111167 0.0 
				1.00288 -0.00888925 0.0 
				1.00237 -0.011517 0.0 
				1.00683 -0.00692292 0.0 
				1.00771 -0.010074 0.0 
				1.00976 -0.00370167 0.0 
				1.0122 -0.00686066 0.0 
				1.01106 9.78296e-05 0.0 
				1.01491 -0.00239407 0.0 
				1.01053 0.00365757 0.0 
				1.01526 0.00249495 0.0 
				1.00841 0.00632315 0.0 
				1.01319 0.00681556 0.0 
				1.00533 0.00770069 0.0 
				1.00938 0.00967651 0.0 
				1.00226 0.0076333 0.0 
				1.005 0.0105552 0.0 