<VTKFile type="UnstructuredGrid" version="0.1" byte_order="LittleEndian">
<UnstructuredGrid>
	<Piece NumberOfPoints="4224" NumberOfCells="8192">
		<CellData Scalars="density" Vectors="velocity">
			<DataArray type="Float64" Name="density" Format="ascii">
				1.04258
				1.04203
				1.04348
				1.04246
				1.04479
				1.0436
				1.04581
				1.0449
				1.04554
				1.0455
				1.04294
				1.04426
				1.03771
				1.0404
				1.03052
				1.03427
				1.0221
				1.02675
				1.01269
				1.01829
				1.00231
				1.00894
				0.991035
				0.998757
				0.979089
				0.987959
				0.966769
				0.976901
				0.954802
				0.965964
				0.943635
				0.956747
				0.940963
				0.950071
				0.929325
				0.949144
				0.994573
				0.973185
				0.96479
				0.94946
				1.4243
				1.23544
				0.682588
				0.563868
				0.858875
				0.761127
				1.39493
				1.28112
				0.602444
				0.78211
				1.03776
				0.569604
				0.747419
				1.00396
				0.6449
				0.75408
				0.830171
				0.758637
				0.693322
				0.778779
				0.71058
				0.713467
				0.715717
				0.725317
				0.712691
				0.727532
				0.720035
				0.72984
				0.729042
				0.737565
				0.739016
				0.746847
				0.75056
				0.757298
				0.763805
				0.769305
				0.778592
				0.782904
				0.794727
				0.797899
				0.811889
				0.814035
				0.829729
				0.830979
				0.847917
				0.848395
				0.866114
				0.865976
				0.884123
				0.883453
				0.901789
				0.90065
				0.918937
				0.917433
				0.935539
				0.933676
				0.951464
				0.949332
				0.966688
				0.964315
				0.981153
				0.978591
				0.994822
				0.992112
				1.00765
				1.00484
				1.01958
				1.01673
				1.03058
				1.02774
				1.04061
				1.03784
				1.04963
				1.04698
				1.0576
				1.05514
				1.06449
				1.06228
				1.07028
				1.06836
				1.07494
				1.07338
				1.07845
				1.0773
				1.0808
				1.08011
				1.08197
				1.0818
				1.08197
				1.08236
				1.0808
				1.0818
				1.07845
				1.08011
				1.07494
				1.07729
				1.07028
				1.07337
				1.06449
				1.06836
				1.05759
				1.06227
				1.04962
				1.05513
				1.0406
				1.04698
				1.03057
				1.03783
				1.01957
				1.02774
				1.00764
				1.01672
				0.994814
				1.00483
				0.981145
				0.992105
				0.96668
				0.978583
				0.951447
				0.964302
				0.935531
				0.949324
				0.918931
				0.933669
				0.901764
				0.917416
				0.884093
				0.900626
				0.866068
				0.883416
				0.847848
				0.865921
				0.829631
				0.848314
				0.811763
				0.830873
				0.794536
				0.813879
				0.77835
				0.797692
				0.763497
				0.782636
				0.750178
				0.76897
				0.738544
				0.756878
				0.728426
				0.746318
				0.719379
				0.736985
				0.712097
				0.729186
				0.711577
				0.725174
				0.705625
				0.721211
				0.6961
				0.713982
				0.783893
				0.754526
				0.663281
				0.74102
				0.735991
				0.736481
				0.921839
				0.903186
				0.594866
				0.6267
				1.18997
				0.801009
				0.769551
				0.987608
				0.888397
				0.87071
				0.955336
				0.925277
				0.867279
				0.904649
				0.925667
				0.909592
				0.903797
				0.917254
				0.926525
				0.925682
				0.938003
				0.937591
				0.952379
				0.95027
				0.966712
				0.963437
				0.980262
				0.976524
				0.992948
				0.9889
				1.00459
				1.00046
				1.01501
				1.01096
				1.02418
				1.02029
				1.03208
				1.02842
				1.03857
				1.03534
				1.04319
				1.04076
				1.04554
				1.04417
				1.04584
				1.04538
				1.04488
				1.04491
				1.04354
				1.04367
				1.0426
				1.04251
				1.04223
				1.0429
				1.04319
				1.0435
				1.04468
				1.04496
				1.04583
				1.04644
				1.04541
				1.04689
				1.04253
				1.04523
				1.03745
				1.04108
				1.03112
				1.03509
				1.02402
				1.02802
				1.01604
				1.02005
				1.00712
				1.01109
				0.997281
				1.00111
				0.986596
				0.990161
				0.975009
				0.978181
				0.962366
				0.965526
				0.949438
				0.950905
				0.930754
				0.937555
				0.916351
				0.916181
				0.873754
				0.903027
				0.847204
				0.847837
				0.635068
				0.86505
				0.673894
				0.455529
				0.684309
				0.723291
				0.4467
				0.775704
				0.737938
				0.430359
				0.703964
				0.753402
				0.819737
				0.926489
				0.751575
				0.62699
				0.7949
				0.82264
				0.775247
				0.752261
				0.753973
				0.747032
				0.760258
				0.752166
				0.761158
				0.747351
				0.766163
				0.752652
				0.773906
				0.759669
				0.782913
				0.768057
				0.793283
				0.777961
				0.805082
				0.78932
				0.818203
				0.802121
				0.832439
				0.816212
				0.847513
				0.831343
				0.863124
				0.847205
				0.878982
				0.863485
				0.894842
				0.879897
				0.910507
				0.896208
				0.925827
				0.912244
				0.940701
				0.927874
				0.955041
				0.943
				0.968796
				0.957552
				0.981912
				0.971475
				0.994356
				0.984726
				1.00609
				0.997266
				1.01707
				1.00906
				1.02728
				1.02006
				1.03668
				1.03025
				1.04523
				1.03958
				1.05291
				1.04802
				1.0597
				1.05555
				1.06556
				1.06213
				1.07048
				1.06774
				1.07444
				1.07236
				1.07742
				1.07597
				1.07941
				1.07856
				1.08041
				1.08011
				1.08041
				1.08063
				1.07941
				1.08011
				1.07742
				1.07856
				1.07443
				1.07597
				1.07048
				1.07235
				1.06556
				1.06773
				1.05969
				1.06212
				1.05291
				1.05554
				1.04522
				1.04801
				1.03667
				1.03957
				1.02727
				1.03024
				1.01707
				1.02006
				1.00608
				1.00905
				0.994348
				0.997258
				0.981904
				0.984719
				0.968787
				0.971466
				0.955031
				0.957542
				0.940686
				0.942989
				0.925807
				0.927858
				0.910476
				0.91222
				0.894797
				0.896171
				0.878917
				0.879843
				0.863032
				0.863406
				0.847385
				0.847097
				0.832267
				0.831193
				0.817977
				0.816012
				0.804792
				0.801859
				0.792921
				0.788993
				0.782455
				0.777555
				0.773328
				0.76756
				0.765481
				0.758986
				0.759871
				0.751716
				0.757062
				0.746226
				0.752056
				0.747316
				0.76503
				0.742839
				0.779016
				0.74701
				0.753828
				0.799196
				0.811335
				0.673445
				0.721459
				0.869641
				0.776679
				0.753529
				0.663318
				0.597017
				0.771364
				0.873968
				0.804954
				0.703718
				0.831947
				0.862993
				0.884772
				0.843205
				0.892371
				0.88721
				0.923664
				0.909039
				0.93421
				0.920685
				0.951079
				0.94074
				0.964021
				0.953494
				0.976789
				0.968006
				0.988648
				0.980835
				0.999537
				0.992857
				1.00948
				1.00385
				1.01834
				1.01374
				1.02607
				1.02247
				1.03271
				1.03004
				1.03835
				1.03651
				1.04268
				1.04176
				1.04513
				1.0453
				1.04556
				1.04674
				1.04457
				1.04635
				1.04317
				1.04493
				1.04223
				1.0435
				1.04287
				1.04186
				1.04409
				1.04241
				1.04572
				1.04377
				1.04652
				1.04511
				1.04533
				1.0451
				1.04173
				1.04277
				1.03644
				1.03833
				1.03031
				1.03278
				1.02348
				1.02664
				1.0157
				1.01971
				1.00687
				1.01174
				0.996945
				1.0027
				0.985838
				0.992498
				0.973623
				0.981036
				0.959785
				0.967911
				0.944047
				0.953443
				0.927755
				0.934534
				0.901898
				0.915823
				0.886841
				0.884263
				0.831059
				0.860978
				0.786869
				0.803289
				0.749487
				0.756507
				0.691791
				0.836339
				0.857836
				0.631635
				0.509004
				0.927618
				0.861655
				0.840313
				0.693256
				0.714886
				0.842935
				0.881208
				0.804998
				0.763911
				0.77286
				0.820511
				0.791797
				0.801333
				0.778089
				0.786426
				0.781233
				0.792177
				0.787202
				0.794696
				0.79361
				0.800007
				0.801894
				0.807489
				0.811625
				0.816264
				0.822643
				0.826324
				0.834868
				0.837607
				0.848116
				0.849953
				0.86213
				0.863145
				0.876638
				0.876926
				0.891376
				0.891042
				0.906119
				0.905262
				0.920686
				0.919389
				0.934938
				0.933274
				0.948773
				0.9468
				0.962112
				0.959881
				0.974901
				0.972454
				0.987092
				0.984469
				0.99865
				0.995887
				1.00954
				1.00667
				1.01973
				1.0168
				1.02919
				1.02623
				1.03789
				1.03495
				1.04581
				1.04292
				1.05292
				1.05013
				1.05919
				1.05654
				1.06461
				1.06215
				1.06915
				1.06692
				1.07281
				1.07084
				1.07556
				1.07391
				1.0774
				1.07611
				1.07832
				1.07743
				1.07831
				1.07788
				1.07739
				1.07743
				1.07555
				1.07611
				1.0728
				1.07391
				1.06915
				1.07084
				1.0646
				1.06691
				1.05919
				1.06214
				1.05291
				1.05654
				1.04581
				1.05012
				1.03789
				1.04292
				1.02918
				1.03494
				1.01972
				1.02623
				1.00953
				1.01679
				0.998642
				1.00667
				0.987083
				0.995878
				0.974891
				0.984459
				0.9621
				0.972442
				0.948757
				0.959866
				0.934915
				0.94678
				0.920653
				0.933245
				0.906072
				0.919349
				0.891308
				0.905204
				0.876544
				0.890962
				0.862003
				0.876817
				0.847946
				0.862998
				0.834646
				0.84976
				0.822357
				0.837358
				0.811265
				0.826007
				0.801455
				0.81586
				0.793031
				0.80697
				0.786193
				0.79936
				0.780102
				0.793593
				0.776732
				0.789871
				0.783813
				0.785117
				0.77173
				0.79408
				0.793896
				0.804931
				0.825672
				0.772111
				0.727437
				0.860532
				0.869216
				0.74744
				0.64717
				0.841117
				0.826197
				0.880545
				0.779379
				0.715811
				0.804157
				0.885273
				0.88465
				0.803716
				0.858993
				0.882238
				0.913623
				0.890004
				0.917441
				0.913063
				0.939219
				0.933199
				0.952872
				0.946769
				0.966549
				0.962181
				0.979225
				0.974628
				0.990632
				0.986417
				1.00114
				0.997012
				1.01058
				1.00661
				1.01898
				1.01517
				1.02631
				1.02268
				1.0326
				1.02913
				1.03802
				1.03465
				1.04248
				1.03938
				1.04543
				1.04299
				1.04641
				1.04488
				1.04566
				1.04487
				1.04408
				1.04367
				1.04287
				1.04238
				1.04125
				1.04192
				1.04232
				1.04265
				1.04373
				1.04432
				1.04404
				1.04548
				1.04216
				1.04473
				1.03826
				1.04162
				1.03339
				1.03694
				1.02821
				1.0317
				1.02247
				1.02609
				1.01583
				1.01971
				1.00825
				1.01242
				0.999703
				1.00423
				0.990095
				0.995062
				0.979498
				0.984871
				0.967537
				0.973826
				0.954284
				0.960853
				0.939059
				0.947826
				0.924903
				0.930445
				0.900657
				0.911334
				0.89801
				0.897146
				0.856836
				0.839477
				0.876324
				0.872574
				0.919989
				0.766554
				0.758425
				0.926475
				0.994703
				0.749703
				0.775817
				0.962892
				0.898347
				0.819364
				0.876184
				0.81648
				0.804648
				0.876007
				0.845473
				0.801983
				0.822588
				0.821443
				0.819008
				0.815166
				0.823069
				0.809614
				0.826134
				0.814323
				0.831633
				0.819466
				0.838832
				0.825908
				0.847248
				0.833978
				0.856794
				0.843309
				0.86734
				0.853748
				0.878706
				0.865152
				0.890684
				0.877321
				0.903054
				0.890025
				0.915611
				0.903034
				0.92817
				0.916143
				0.940582
				0.929172
				0.952727
				0.941982
				0.964515
				0.954466
				0.975878
				0.966539
				0.986763
				0.978144
				0.997129
				0.989229
				1.00694
				0.99976
				1.01617
				1.0097
				1.0248
				1.01903
				1.03279
				1.02771
				1.04013
				1.03573
				1.0468
				1.04305
				1.05278
				1.04967
				1.05805
				1.05555
				1.06259
				1.06069
				1.0664
				1.06507
				1.06946
				1.06866
				1.07177
				1.07147
				1.07331
				1.07349
				1.07408
				1.0747
				1.07408
				1.0751
				1.0733
				1.07469
				1.07176
				1.07348
				1.06946
				1.07147
				1.0664
				1.06866
				1.06259
				1.06506
				1.05804
				1.06069
				1.05277
				1.05555
				1.0468
				1.04966
				1.04013
				1.04305
				1.03278
				1.03572
				1.02479
				1.0277
				1.01616
				1.01902
				1.00693
				1.00969
				0.997118
				0.99975
				0.986751
				0.989219
				0.975863
				0.97813
				0.964495
				0.966523
				0.9527
				0.954443
				0.940544
				0.941951
				0.928118
				0.929129
				0.915541
				0.916083
				0.90296
				0.902953
				0.890558
				0.889915
				0.878541
				0.877175
				0.867126
				0.864961
				0.856519
				0.853501
				0.846894
				0.842994
				0.838372
				0.833582
				0.831042
				0.825394
				0.825236
				0.818653
				0.821317
				0.813131
				0.817362
				0.808612
				0.819346
				0.811062
				0.832824
				0.813511
				0.807444
				0.802036
				0.858098
				0.852527
				0.871911
				0.817887
				0.792614
				0.821521
				0.958795
				0.916198
				0.795564
				0.788414
				0.924907
				0.924819
				0.898692
				0.833559
				0.886544
				0.901898
				0.926317
				0.890969
				0.918598
				0.914568
				0.941857
				0.93207
				0.951362
				0.942394
				0.963853
				0.957218
				0.975323
				0.968328
				0.985778
				0.979831
				0.99541
				0.990019
				1.00425
				0.999535
				1.01221
				1.00818
				1.0193
				1.01595
				1.02551
				1.02284
				1.0308
				1.02882
				1.03538
				1.03397
				1.03941
				1.03852
				1.04249
				1.04237
				1.04394
				1.04486
				1.04358
				1.04542
				1.04226
				1.04429
				1.04125
				1.04266
				1.04055
				1.03957
				1.04201
				1.04016
				1.04355
				1.04151
				1.04336
				1.04218
				1.04079
				1.04082
				1.03668
				1.03747
				1.03225
				1.03329
				1.02777
				1.02905
				1.02275
				1.02455
				1.01695
				1.01934
				1.01043
				1.01337
				1.00317
				1.00673
				0.995098
				0.999349
				0.986441
				0.99129
				0.976749
				0.982659
				0.966193
				0.973357
				0.955973
				0.96313
				0.940352
				0.953976
				0.935043
				0.942716
				0.90938
				0.931487
				0.921502
				0.93873
				0.882873
				0.89135
				0.951657
				0.976173
				0.882549
				0.878408
				0.891817
				0.936045
				0.955789
				0.944777
				0.834954
				0.839083
				0.88898
				0.915101
				0.8553
				0.858359
				0.841309
				0.853455
				0.845596
				0.859202
				0.840009
				0.847815
				0.840359
				0.848648
				0.84421
				0.851409
				0.849164
				0.855034
				0.855541
				0.860532
				0.863223
				0.867366
				0.871974
				0.875274
				0.881634
				0.884127
				0.892038
				0.893767
				0.902994
				0.904017
				0.914308
				0.914694
				0.925794
				0.925616
				0.937289
				0.93662
				0.948656
				0.947564
				0.959786
				0.958329
				0.970593
				0.968825
				0.981013
				0.978978
				0.990994
				0.988734
				1.0005
				0.998048
				1.00949
				1.00689
				1.01795
				1.01522
				1.02584
				1.02303
				1.03315
				1.03028
				1.03986
				1.03697
				1.04595
				1.04308
				1.05141
				1.04858
				1.05622
				1.05347
				1.06036
				1.05773
				1.06383
				1.06136
				1.06662
				1.06434
				1.06872
				1.06666
				1.07012
				1.06833
				1.07082
				1.06933
				1.07082
				1.06966
				1.07012
				1.06933
				1.06871
				1.06833
				1.06662
				1.06666
				1.06383
				1.06434
				1.06036
				1.06136
				1.05621
				1.05773
				1.0514
				1.05347
				1.04595
				1.04858
				1.03986
				1.04307
				1.03314
				1.03697
				1.02583
				1.03028
				1.01794
				1.02302
				1.00948
				1.01521
				1.00049
				1.00688
				0.99098
				0.998034
				0.980996
				0.988717
				0.970571
				0.978958
				0.959756
				0.968798
				0.948616
				0.958294
				0.937235
				0.947517
				0.925722
				0.936558
				0.914212
				0.925533
				0.902868
				0.914585
				0.891874
				0.903874
				0.881422
				0.893582
				0.871701
				0.883889
				0.862873
				0.874967
				0.855085
				0.866965
				0.848513
				0.860007
				0.84324
				0.854299
				0.839169
				0.850165
				0.837904
				0.847013
				0.840531
				0.845915
				0.837662
				0.852684
				0.847902
				0.848636
				0.87126
				0.853966
				0.838142
				0.89318
				0.911502
				0.842187
				0.883904
				0.914597
				0.881097
				0.910117
				0.932901
				0.879872
				0.893176
				0.952863
				0.932155
				0.901526
				0.924522
				0.942251
				0.942646
				0.939192
				0.950256
				0.94892
				0.961908
				0.960495
				0.971535
				0.968296
				0.981267
				0.97809
				0.990307
				0.98684
				0.998598
				0.995058
				1.00635
				1.00279
				1.01334
				1.00987
				1.01964
				1.01627
				1.02523
				1.02202
				1.03003
				1.02703
				1.03422
				1.0313
				1.03808
				1.0351
				1.04142
				1.03855
				1.04346
				1.04117
				1.04351
				1.04216
				1.04201
				1.04144
				1.04057
				1.04015
				1.03729
				1.03789
				1.03837
				1.03878
				1.0394
				1.04056
				1.0387
				1.04111
				1.03601
				1.03924
				1.0325
				1.03573
				1.02912
				1.032
				1.02572
				1.02848
				1.02176
				1.02464
				1.01711
				1.02009
				1.01193
				1.0149
				1.00621
				1.00914
				0.999919
				1.00273
				0.993291
				0.995742
				0.986104
				0.988332
				0.978437
				0.980061
				0.971047
				0.971842
				0.963519
				0.962476
				0.953016
				0.954812
				0.955447
				0.943125
				0.934694
				0.943758
				0.943004
				0.929904
				0.95149
				0.929534
				0.897997
				0.960947
				0.94648
				0.891134
				0.897285
				0.939491
				0.897382
				0.890715
				0.900295
				0.889433
				0.878668
				0.887403
				0.879278
				0.870415
				0.876305
				0.869653
				0.873293
				0.866776
				0.874498
				0.865796
				0.877167
				0.867652
				0.881111
				0.87118
				0.88641
				0.876084
				0.892797
				0.882205
				0.900083
				0.889369
				0.908121
				0.897409
				0.916759
				0.906165
				0.925838
				0.915473
				0.935202
				0.925168
				0.944706
				0.935087
				0.954222
				0.945085
				0.963638
				0.955034
				0.972864
				0.964828
				0.981827
				0.974382
				0.990469
				0.983628
				0.998746
				0.992514
				1.00662
				1.001
				1.01407
				1.00905
				1.02106
				1.01663
				1.02758
				1.02374
				1.03361
				1.03033
				1.03913
				1.03641
				1.04414
				1.04196
				1.04862
				1.04695
				1.05256
				1.05139
				1.05595
				1.05525
				1.05879
				1.05853
				1.06107
				1.06123
				1.06278
				1.06334
				1.06392
				1.06484
				1.0645
				1.06575
				1.0645
				1.06605
				1.06392
				1.06574
				1.06278
				1.06484
				1.06106
				1.06333
				1.05879
				1.06123
				1.05595
				1.05853
				1.05255
				1.05524
				1.04861
				1.05138
				1.04413
				1.04694
				1.03913
				1.04195
				1.0336
				1.03641
				1.02757
				1.03033
				1.02105
				1.02373
				1.01406
				1.01662
				1.00661
				1.00903
				0.998729
				1.00098
				0.990449
				0.992496
				0.981801
				0.983606
				0.97283
				0.974353
				0.963595
				0.964791
				0.954165
				0.954985
				0.944633
				0.945021
				0.935107
				0.935003
				0.925715
				0.925058
				0.916601
				0.915332
				0.907919
				0.905983
				0.899822
				0.897175
				0.892458
				0.889067
				0.885965
				0.881811
				0.880505
				0.875551
				0.876271
				0.870434
				0.873246
				0.8666
				0.87168
				0.86429
				0.873224
				0.864244
				0.874987
				0.865807
				0.875527
				0.866785
				0.890933
				0.878768
				0.889872
				0.881623
				0.892345
				0.883025
				0.925693
				0.916939
				0.900307
				0.89228
				0.934316
				0.930709
				0.934911
				0.925059
				0.935873
				0.929465
				0.953435
				0.944686
				0.954722
				0.946558
				0.965169
				0.957964
				0.972906
				0.965895
				0.980246
				0.974448
				0.987984
				0.982669
				0.995068
				0.990605
				1.0017
				0.997881
				1.00795
				1.00475
				1.01362
				1.01102
				1.01878
				1.0167
				1.02342
				1.02183
				1.02742
				1.02633
				1.03084
				1.03017
				1.03396
				1.03356
				1.03688
				1.03682
				1.03899
				1.03969
				1.03941
				1.04115
				1.03836
				1.04054
				1.0373
				1.0388
				1.03488
				1.03389
				1.03652
				1.03448
				1.03783
				1.03566
				1.03687
				1.03572
				1.03402
				1.03381
				1.0309
				1.03097
				1.02819
				1.02833
				1.02534
				1.02584
				1.02179
				1.02286
				1.01761
				1.01921
				1.01295
				1.01504
				1.00779
				1.01044
				1.00209
				1.00536
				0.996042
				0.999853
				0.989507
				0.994055
				0.982503
				0.987746
				0.975607
				0.981163
				0.968254
				0.97504
				0.960878
				0.967139
				0.954688
				0.961607
				0.951742
				0.957059
				0.938063
				0.944004
				0.950017
				0.951711
				0.924782
				0.931562
				0.928062
				0.931959
				0.92073
				0.928865
				0.905
				0.913318
				0.906433
				0.913815
				0.896178
				0.905657
				0.89205
				0.899964
				0.890158
				0.897983
				0.888668
				0.895987
				0.889379
				0.895765
				0.891664
				0.897323
				0.895234
				0.900132
				0.899965
				0.904103
				0.905687
				0.909105
				0.912243
				0.914971
				0.919486
				0.921555
				0.927273
				0.928718
				0.935458
				0.936324
				0.943902
				0.944239
				0.952477
				0.952334
				0.961067
				0.960497
				0.969572
				0.968624
				0.977911
				0.976631
				0.986017
				0.984446
				0.993835
				0.992013
				1.00132
				0.999285
				1.00845
				1.00623
				1.01518
				1.01281
				1.02151
				1.019
				1.0274
				1.0248
				1.03284
				1.03018
				1.03783
				1.03512
				1.04235
				1.03963
				1.04639
				1.04368
				1.04994
				1.04727
				1.05299
				1.0504
				1.05555
				1.05305
				1.0576
				1.05523
				1.05914
				1.05693
				1.06016
				1.05814
				1.06068
				1.05887
				1.06068
				1.05911
				1.06016
				1.05887
				1.05913
				1.05814
				1.05759
				1.05693
				1.05554
				1.05523
				1.05299
				1.05305
				1.04993
				1.05039
				1.04638
				1.04727
				1.04234
				1.04367
				1.03782
				1.03962
				1.03284
				1.03512
				1.02739
				1.03017
				1.0215
				1.02479
				1.01517
				1.01899
				1.00843
				1.01279
				1.00131
				1.00621
				0.993813
				0.999265
				0.985989
				0.991988
				0.977876
				0.984415
				0.969527
				0.976591
				0.961009
				0.968573
				0.952403
				0.960432
				0.943808
				0.952252
				0.935337
				0.944133
				0.927118
				0.93619
				0.919289
				0.928547
				0.911989
				0.921336
				0.905358
				0.91469
				0.899533
				0.908739
				0.894651
				0.903619
				0.890856
				0.899469
				0.888265
				0.896408
				0.887104
				0.894537
				0.887758
				0.894216
				0.889103
				0.895407
				0.892482
				0.897072
				0.900238
				0.901648
				0.900634
				0.908061
				0.912632
				0.909501
				0.920209
				0.921302
				0.920725
				0.92632
				0.938747
				0.929336
				0.937043
				0.943879
				0.948683
				0.943873
				0.955004
				0.954941
				0.961642
				0.961254
				0.969576
				0.967631
				0.97679
				0.975453
				0.983735
				0.981812
				0.990675
				0.988436
				0.997117
				0.994722
				1.00313
				1.00054
				1.00877
				1.00605
				1.01388
				1.01112
				1.01853
				1.01573
				1.0227
				1.01993
				1.02632
				1.02367
				1.02935
				1.02684
				1.03206
				1.02952
				1.0348
				1.03204
				1.03713
				1.03444
				1.03783
				1.03593
				1.03652
				1.0357
				1.0349
				1.0345
				1.03019
				1.03078
				1.0312
				1.03176
				1.03191
				1.03354
				1.03091
				1.03366
				1.02874
				1.03161
				1.02671
				1.02903
				1.02494
				1.02696
				1.02276
				1.02492
				1.01985
				1.02221
				1.01642
				1.01881
				1.01263
				1.01498
				1.00846
				1.01076
				1.00389
				1.00611
				0.999054
				1.00108
				0.993873
				0.995781
				0.988355
				0.990095
				0.982962
				0.984191
				0.977074
				0.978343
				0.971066
				0.972215
				0.966576
				0.965979
				0.959142
				0.961944
				0.955623
				0.953589
				0.949754
				0.951397
				0.94269
				0.944664
				0.94037
				0.93595
				0.932297
				0.935347
				0.928369
				0.924899
				0.923768
				0.921358
				0.919458
				0.917063
				0.916842
				0.91209
				0.915149
				0.910155
				0.914645
				0.908833
				0.915364
				0.908788
				0.917247
				0.910167
				0.920155
				0.912675
				0.923979
				0.916221
				0.928601
				0.920682
				0.933897
				0.925921
				0.939744
				0.931811
				0.946024
				0.938223
				0.952621
				0.945035
				0.959425
				0.952124
				0.966335
				0.95938
				0.97326
				0.966699
				0.980123
				0.973991
				0.986855
				0.981179
				0.993402
				0.988199
				0.999719
				0.994998
				1.00577
				1.00153
				1.01152
				1.00777
				1.01696
				1.01369
				1.02206
				1.01926
				1.0268
				1.02446
				1.03118
				1.02929
				1.03519
				1.03373
				1.03881
				1.03777
				1.04205
				1.0414
				1.04489
				1.04462
				1.04733
				1.04742
				1.04937
				1.0498
				1.051
				1.05174
				1.05223
				1.05326
				1.05305
				1.05435
				1.05346
				1.055
				1.05346
				1.05522
				1.05305
				1.055
				1.05223
				1.05435
				1.051
				1.05326
				1.04936
				1.05174
				1.04732
				1.04979
				1.04488
				1.04742
				1.04204
				1.04462
				1.0388
				1.0414
				1.03518
				1.03776
				1.03117
				1.03372
				1.02679
				1.02928
				1.02204
				1.02445
				1.01694
				1.01925
				1.01151
				1.01367
				1.00575
				1.00776
				0.999694
				1.00151
				0.993372
				0.994972
				0.986818
				0.988166
				0.980077
				0.981138
				0.973203
				0.973939
				0.966263
				0.966634
				0.959335
				0.959298
				0.952508
				0.952021
				0.945881
				0.944905
				0.939564
				0.938059
				0.933668
				0.931601
				0.928309
				0.925654
				0.9236
				0.920337
				0.919658
				0.91577
				0.916589
				0.912076
				0.914493
				0.909362
				0.913483
				0.907723
				0.913612
				0.907362
				0.914864
				0.908179
				0.917087
				0.909821
				0.920787
				0.913816
				0.924978
				0.917666
				0.92906
				0.921477
				0.936183
				0.930016
				0.940052
				0.932834
				0.946798
				0.940662
				0.953169
				0.947572
				0.958132
				0.952162
				0.965394
				0.960261
				0.970862
				0.965742
				0.977036
				0.972284
				0.983057
				0.978677
				0.988597
				0.984648
				0.994113
				0.990593
				0.999278
				0.996248
				1.0041
				1.00153
				1.00863
				1.00652
				1.01276
				1.01111
				1.01653
				1.0153
				1.01996
				1.0191
				1.02298
				1.02251
				1.02545
				1.02539
				1.02749
				1.02771
				1.02949
				1.02985
				1.03133
				1.03212
				1.03207
				1.0338
				1.03126
				1.03356
				1.03022
				1.03179
				1.02687
				1.0259
				1.02855
				1.02644
				1.02967
				1.02748
				1.02861
				1.02741
				1.02656
				1.02597
				1.02495
				1.02443
				1.02356
				1.02321
				1.02155
				1.02167
				1.0188
				1.01937
				1.01563
				1.01654
				1.01218
				1.01341
				1.00839
				1.01
				1.00428
				1.00627
				0.999929
				1.00228
				0.995327
				0.998081
				0.990483
				0.993609
				0.98558
				0.988989
				0.980524
				0.984331
				0.975312
				0.979338
				0.970589
				0.974707
				0.965282
				0.969758
				0.960119
				0.964808
				0.956091
				0.960685
				0.949701
				0.955006
				0.945945
				0.951296
				0.941087
				0.946598
				0.93622
				0.94209
				0.932941
				0.938894
				0.929576
				0.935398
				0.927234
				0.933014
				0.926035
				0.931512
				0.92573
				0.930801
				0.926446
				0.93109
				0.92816
				0.932302
				0.930765
				0.934377
				0.934172
				0.937251
				0.938286
				0.940832
				0.942998
				0.945023
				0.948202
				0.949726
				0.953793
				0.95484
				0.959667
				0.960266
				0.965728
				0.965912
				0.971886
				0.97169
				0.978061
				0.97752
				0.984182
				0.98333
				0.99019
				0.989062
				0.996035
				0.994661
				1.00168
				1.00009
				1.00708
				1.0053
				1.01222
				1.01028
				1.01707
				1.01499
				1.02162
				1.01943
				1.02586
				1.02358
				1.02977
				1.02742
				1.03334
				1.03094
				1.03657
				1.03415
				1.03945
				1.03702
				1.04198
				1.03957
				1.04415
				1.04178
				1.04597
				1.04366
				1.04742
				1.04519
				1.04851
				1.04639
				1.04924
				1.04724
				1.0496
				1.04776
				1.0496
				1.04793
				1.04924
				1.04776
				1.04851
				1.04724
				1.04742
				1.04639
				1.04596
				1.04519
				1.04415
				1.04365
				1.04197
				1.04178
				1.03944
				1.03956
				1.03656
				1.03702
				1.03333
				1.03414
				1.02976
				1.03093
				1.02585
				1.02741
				1.02161
				1.02356
				1.01706
				1.01942
				1.0122
				1.01498
				1.00706
				1.01026
				1.00165
				1.00528
				0.996004
				1.00006
				0.990153
				0.994627
				0.984136
				0.989021
				0.978004
				0.98328
				0.971816
				0.977458
				0.965641
				0.971614
				0.959559
				0.965818
				0.953658
				0.960149
				0.948033
				0.954693
				0.942785
				0.949543
				0.938016
				0.944793
				0.933829
				0.940541
				0.930322
				0.936881
				0.927589
				0.933903
				0.925709
				0.931694
				0.924773
				0.930314
				0.924804
				0.929821
				0.925737
				0.930268
				0.927736
				0.931524
				0.93069
				0.93367
				0.933906
				0.936801
				0.938417
				0.940008
				0.943192
				0.944338
				0.947554
				0.948988
				0.953587
				0.953237
				0.958427
				0.95879
				0.963959
				0.9635
				0.969612
				0.968748
				0.974849
				0.973976
				0.980288
				0.978948
				0.98552
				0.984077
				0.990549
				0.988893
				0.995433
				0.993582
				1.00004
				0.998077
				1.00439
				1.00229
				1.00846
				1.00625
				1.01219
				1.00993
				1.0156
				1.01329
				1.01871
				1.01636
				1.02148
				1.01915
				1.0237
				1.02155
				1.02542
				1.02342
				1.02712
				1.02494
				1.02894
				1.02648
				1.02979
				1.02771
				1.02862
				1.02763
				1.0269
				1.02652
				1.02185
				1.02238
				1.02279
				1.02337
				1.02348
				1.0251
				1.02285
				1.02517
				1.02175
				1.02371
				1.02091
				1.02243
				1.01987
				1.0215
				1.01811
				1.02009
				1.01579
				1.0179
				1.01324
				1.0153
				1.01049
				1.01249
				1.0075
				1.00944
				1.00429
				1.00613
				1.00088
				1.0026
				0.997289
				0.998875
				0.993518
				0.994954
				0.989645
				0.990891
				0.985628
				0.986728
				0.981588
				0.982407
				0.977527
				0.97813
				0.973307
				0.973863
				0.969427
				0.969353
				0.96531
				0.965317
				0.961395
				0.960945
				0.95789
				0.956884
				0.95429
				0.953193
				0.951287
				0.949421
				0.948708
				0.946397
				0.946603
				0.943789
				0.945205
				0.941793
				0.944496
				0.940581
				0.944504
				0.940132
				0.945257
				0.940478
				0.946721
				0.941612
				0.948852
				0.943493
				0.95159
				0.946063
				0.954866
				0.949247
				0.958601
				0.952967
				0.962714
				0.957136
				0.967125