<VTKFile type="UnstructuredGrid" version="0.1" byte_order="LittleEndian">
<UnstructuredGrid>
	<Piece NumberOfPoints="7652" NumberOfCells="7524">
		<CellData Scalars="density" Vectors="velocity">
			<DataArray type="Float64" Name="density" Format="ascii">
				1.00012
				0.972113
				0.999348
				0.999279
				1.02128
				0.999266
				0.99118
				0.992307
				0.999771
				1.04513
				0.999152
				1.0149
				1.00176
				0.999159
				1.00475
				0.999982
				0.985999
				1.00018
				0.997955
				0.984801
				0.998481
				1.00025
				0.974243
				0.997819
				0.943426
				1.00048
				1.00024
				0.99622
				1.00229
				1.00159
				1.00002
				1.0015
				0.999535
				1.00033
				0.998996
				1.00019
				1.00315
				1.00472
				0.998801
				1.001
				1.00023
				1.0002
				1.00015
				0.989634
				1.00025
				0.879602
				0.99935
				1.00038
				1.0001
				1.00019
				0.984178
				0.993775
				1.00038
				0.999953
				1.00047
				0.896736
				0.997696
				1.00023
				1.00067
				0.994058
				1.00023
				1.00271
				1.0009
				1.0001
				0.996911
				0.831982
				1.01474
				1.00192
				1.00006
				1.00007
				1.00006
				0.999552
				0.999789
				1.00002
				0.997959
				1.01518
				1.00303
				0.999997
				1.00114
				0.99645
				0.999347
				0.999985
				1.0002
				1.00436
				0.999473
				0.885721
				0.996824
				0.962033
				1.00006
				1.0002
				1.00092
				0.993546
				1.00015
				0.998542
				1.00075
				0.997928
				1.0017
				1.04474
				1.00023
				0.999855
				1.00017
				0.995935
				1.0012
				0.999747
				1.00048
				0.954237
				1.00075
				0.996602
				1.00022
				0.998331
				0.999302
				1.02239
				1.00136
				0.999403
				1.00162
				0.999445
				0.999076
				1.04563
				0.993918
				0.996085
				0.998674
				0.941395
				1.00031
				0.998815
				0.999403
				1.00118
				1.00108
				1.00012
				1.03308
				1.00035
				1.01696
				1.00016
				1.0002
				1.00119
				0.808246
				1.00018
				0.999759
				1.00003
				1.04838
				0.997338
				1.00381
				0.999572
				1.00014
				0.994303
				0.92895
				1.04016
				1.00246
				1.00035
				1.00167
				0.999837
				0.999195
				1.00273
				1.00369
				0.999619
				0.999244
				0.999621
				1.03945
				1.00059
				0.990294
				1.00135
				1.00003
				0.99854
				0.999382
				0.999369
				1.00269
				1.00077
				1.00108
				0.999457
				1.00052
				1.00019
				1.03411
				0.98531
				1.00056
				0.999994
				1.00029
				0.984687
				1.00043
				0.995854
				1.00052
				1.00007
				1.00262
				0.96987
				0.999315
				0.995225
				1.0002
				0.979689
				0.993941
				1.00013
				1.00025
				0.912336
				0.999641
				1.00295
				1.00561
				0.999963
				1.00059
				1.00082
				0.98865
				0.995588
				0.887109
				1.00047
				1.00622
				1.00014
				1.00515
				0.998881
				1.00177
				0.999646
				1.00072
				1.00038
				0.94836
				0.980654
				1.06705
				0.886533
				1.01711
				1.00033
				0.99668
				1.00185
				1.00056
				0.999885
				0.999844
				1.00027
				1.00007
				0.999782
				0.999884
				1.00005
				1.00025
				0.998514
				0.999559
				1.00018
				1.00086
				1.00098
				0.999072
				1.00043
				1.04277
				1.00005
				1.0002
				0.996983
				0.996016
				0.999932
				0.999679
				1.02438
				1.00042
				1.00032
				0.958784
				0.998366
				0.999828
				1
				1.00094
				0.999206
				1.04979
				0.959119
				0.948391
				0.999321
				1.05518
				1.00027
				1.05112
				1.05647
				0.99939
				0.999178
				0.997814
				1.00519
				0.955202
				1.00026
				0.974692
				0.999082
				1.00021
				1.00172
				0.999766
				1.00033
				0.999377
				1.03975
				1.05053
				0.999953
				1.00036
				1.00013
				0.992543
				0.810933
				1.0002
				1.00145
				1.00029
				1.00026
				1.00688
				1.00303
				1.00068
				0.980516
				0.997742
				1.00015
				0.999995
				1.01385
				1.00067
				0.999685
				1.00089
				1.00003
				1.00007
				0.999917
				0.830743
				0.99963
				0.967822
				0.997072
				1.00028
				0.998505
				1.00354
				1.00047
				1.04022
				1.00043
				0.854632
				1.00113
				1.00017
				0.998494
				1.00001
				1.00698
				0.944284
				1.00067
				1.00035
				0.962821
				1.001
				1.0398
				1.00013
				0.92397
				0.991658
				1.00288
				0.99906
				0.988782
				1.00035
				0.992795
				1.00227
				0.997813
				1.00012
				1.00284
				0.774641
				1.00276
				1.06247
				0.988277
				1.00034
				0.99093
				1.00072
				0.898592
				1.00082
				1.00051
				1.00693
				0.998654
				1.0029
				0.998149
				1.00047
				0.999544
				1.00199
				1.0028
				0.999668
				1.00167
				0.999907
				1.00067
				0.985334
				1.022
				1.00034
				0.999078
				0.999971
				0.999875
				1.00512
				0.996847
				1.00033
				0.999697
				1.03702
				0.999446
				1.00671
				0.995108
				0.998603
				0.99977
				1.01277
				0.99989
				0.999292
				1.00044
				1.00237
				0.999462
				0.912167
				0.992049
				1.0002
				0.998211
				1.02269
				0.999688
				1.00008
				0.999534
				1.00033
				0.999426
				0.88766
				1.00008
				0.999104
				1.00046
				1.00597
				1.00014
				1.00022
				0.99987
				1.00012
				1.00017
				0.990853
				1.00022
				0.998246
				1.0273
				0.998048
				0.991768
				1.00069
				0.998888
				1.00212
				1.00139
				1.04311
				1.00076
				0.996244
				0.99315
				0.999115
				0.999097
				1.00014
				1.00034
				0.99825
				0.999897
				0.906909
				1.00045
				0.887826
				1.00047
				1.06576
				1.00093
				1.05112
				1.001
				1.00326
				0.999801
				0.998806
				0.985193
				1.01347
				1.01823
				1.00004
				1.00054
				0.990031
				1.00016
				1.00045
				1.00022
				0.820643
				0.999959
				0.999954
				1.00036
				1.00234
				1
				1.00045
				1.00024
				1.0001
				0.998137
				0.999641
				1.00074
				1.00091
				0.999852
				0.995515
				1.00002
				0.999214
				0.988649
				0.939756
				0.999578
				1.04859
				1.00023
				0.94676
				1.00239
				0.836098
				0.998588
				1.01611
				1.00021
				0.899666
				1.02415
				1.00127
				1.00022
				0.96378
				0.996533
				1.00045
				1.00027
				1.00022
				0.999964
				1.00041
				1.00039
				0.977089
				0.929062
				1.00024
				1.01748
				0.999461
				0.978192
				1.01241
				0.985576
				1.00005
				1.00079
				0.996233
				1.06821
				0.999961
				1.00057
				1.00181
				1.00028
				1.00002
				0.960277
				1.00678
				1.00035
				1.00761
				0.940687
				0.998695
				1.00071
				0.905026
				0.995929
				1.00006
				1.0009
				1.00014
				0.998652
				1.00013
				1.0023
				1.03104
				1.00035
				1.00021
				1.03991
				0.8162
				1.00024
				0.999445
				0.999676
				1.00023
				0.940514
				1.00017
				1.00296
				0.999119
				0.999446
				1.00013
				1.00631
				1.00087
				0.948445
				1.02798
				0.992654
				0.976266
				0.83887
				1.0003
				1.00049
				0.940272
				1
				0.958577
				0.999533
				0.999216
				0.997838
				1.0464
				0.967078
				1.01823
				0.990659
				1.00209
				0.999836
				0.999722
				0.999475
				1.00024
				1.01253
				1.01847
				0.998604
				1.06871
				1.00138
				0.998112
				0.999764
				1.00522
				0.999835
				0.997097
				1.00001
				1.00083
				1.00018
				1.01021
				0.885533
				1.00015
				0.993249
				1.00041
				1.04419
				1.00217
				1.00015
				1.00009
				0.986511
				0.99939
				1.00048
				1.00047
				1.04925
				1.00032
				1.00066
				1.00864
				0.947261
				0.99969
				0.999338
				0.987227
				1.00042
				1.00166
				0.998283
				0.995797
				0.991028
				1.04265
				1.00086
				0.997856
				1.01155
				1.00654
				1.00067
				0.998163
				0.97898
				0.999088
				0.974521
				1.00085
				1.02457
				0.999808
				1.00008
				1.00056
				1.00022
				1.00052
				1.05375
				1.00087
				0.999878
				0.999228
				0.814186
				1.00274
				0.99996
				1.00075
				0.927764
				1.00111
				0.999256
				1.01015
				0.99815
				1.00077
				1.00066
				0.94835
				1.0035
				0.999504
				1.00034
				0.994267
				0.992038
				0.999675
				0.999881
				1.00012
				0.999596
				1.00004
				0.999922
				0.886528
				0.987687
				1.0003
				1.00033
				1.00462
				1.0022
				0.999615
				0.999768
				1.0013
				1.00015
				1.00003
				1.00001
				0.994759
				0.966569
				1.01892
				0.997745
				1.02726
				0.900932
				0.983109
				1.00034
				1.00045
				1.0015
				1.00063
				1.0003
				1.00117
				1.01883
				0.999488
				0.992057
				1.00357
				1.0013
				1.00006
				1.07434
				0.996509
				1.01451
				1.00027
				1.00028
				0.919636
				0.999584
				1.00033
				0.999685
				0.999991
				1.00875
				0.99607
				1.00063
				0.999836
				1.00444
				1.00098
				0.998222
				1.0006
				1.00019
				1.00032
				0.999944
				0.999766
				0.999264
				1.0015
				1.00025
				0.999522
				1.00079
				1.00053
				0.986328
				0.999345
				0.98879
				0.999429
				1.00176
				0.971459
				1.00586
				0.979413
				1.00132
				1.0004
				0.894918
				1.0098
				0.999907
				0.927773
				0.999463
				1.00021
				1.04607
				1.00743
				1.0006
				0.97555
				0.931895
				1.00005
				1.02738
				0.999428
				0.999472
				1.0436
				0.96787
				0.999883
				1.00001
				1.00024
				0.99768
				1.0001
				0.997246
				0.859888
				0.999329
				0.998048
				0.999958
				1.00024
				1.04104
				1.00141
				1.01212
				0.999558
				0.996784
				1.00035
				1.00184
				1.00032
				1.00051
				0.979684
				1.00115
				0.962448
				1.00051
				1.00024
				0.999861
				1.01222
				1.00391
				1.00167
				1.00036
				0.999611
				1.00039
				1.00302
				1.03244
				1.00021
				1.02455
				1.0001
				0.996786
				1.00033
				1.00031
				0.999111
				1.00062
				0.998182
				1.01164
				1.00338
				0.877043
				1.00021
				0.999795
				0.996054
				1.02532
				0.996392
				1.00043
				1.00095
				1.00034
				0.995401
				0.99938
				1.00073
				0.99995
				0.999584
				1.00028
				0.998144
				1.002
				0.996848
				1.00024
				0.999523
				1.00088
				1.07037
				0.999514
				1.00099
				0.97536
				0.996971
				0.982346
				1.00058
				0.999305
				0.997477
				0.918616
				1.00024
				1.00158
				1.00025
				0.999372
				1.00068
				0.999069
				0.999978
				0.999846
				1.05777
				1.00023
				1.00049
				0.999104
				0.997374
				0.999258
				0.992324
				1.00044
				0.960871
				0.999945
				0.999973
				1.03278
				0.999272
				0.956053
				1.00032
				0.998781
				1.0016
				1.00034
				0.999563
				0.998782
				1.00724
				1.00003
				0.769932
				1.00024
				0.999983
				1.00023
				1.00022
				0.957905
				0.999427
				1.00032
				1.00043
				1.00007
				1.00014
				1.00121
				1.01636
				1.00018
				1.00834
				1.00028
				1.04858
				1.00012
				0.789086
				0.999988
				1.0127
				0.999451
				0.999549
				1.00017
				1.00042
				1.00017
				0.919251
				1.00074
				1.02761
				1.00037
				1.01654
				1.00032
				1.00343
				1.05792
				1.00023
				0.999787
				0.999936
				1.00209
				0.894055
				1.00228
				0.999843
				1.00066
				0.999664
				1.00086
				1.00247
				1.00064
				1.01068
				1.00036
				1.00002
				1.00058
				0.994604
				0.975515
				0.996471
				1.00171
				1.00094
				1.03841
				0.960466
				1.00054
				0.852621
				0.781498
				0.824171
				0.997831
				0.93971
				1.0305
				1.00481
				0.99965
				0.995816
				0.999522
				0.997813
				1.01119
				1.00127
				1.00068
				1.00211
				1.00902
				0.998062
				0.994962
				1.00334
				0.999367
				1.00004
				1.00035
				1.00009
				1.00038
				1.00492
				0.998133
				0.999595
				1.00204
				0.999724
				0.999707
				0.998922
				1.00018
				0.999767
				0.999496
				1.00114
				1.00017
				0.997507
				1.00173
				1.00004
				1.00633
				0.993006
				1.00059
				1.00108
				0.996795
				1.01413
				0.999329
				1.0009
				0.999347
				0.999826
				0.988698
				1.00026
				1.02173
				1.00132
				1.00035
				1.00041
				1.00429
				1.02439
				1.00022
				1.00262
				0.99949
				0.975527
				1.0003
				1.06468
				0.99941
				0.999459
				1.00131
				0.989929
				0.875687
				0.949777
				0.985163
				0.999941
				1.00086
				0.999891
				0.998782
				0.998606
				1.00061
				1.01922
				1
				0.872176
				1.00325
				0.985172
				0.994236
				1.00054
				1.0005
				0.999853
				1.00056
				1.00085
				1.00036
				1.00014
				1.00061
				0.801237
				1.0002
				1.00041
				0.99939
				0.999521
				0.999242
				1.00009
				1.00035
				1.00026
				0.895015
				1.00065
				1.05243
				0.9996
				1.00036
				0.897398
				0.999356
				1.00059
				0.998683
				1.00018
				1.00039
				0.9995
				1.00019
				0.999589
				0.999514
				0.997825
				1.00014
				1.00686
				1.00026
				0.999589
				0.999517
				0.999631
				1.00043
				0.997723
				0.995755
				0.999424
				1.00003
				0.99979
				1.04057
				1.00876
				1.04144
				1.00296
				1.00002
				1.0014
				1.00115
				1.00017
				1.00799
				1.00009
				0.841462
				0.999908
				0.990234
				1.00352
				1.03369
				0.939324
				1.0459
				0.999919
				0.999434
				0.998584
				0.978596
				1.04553
				0.95723
				1.00155
				0.999831
				0.941949
				0.997746
				1.00548
				1.00017
				0.999831
				1.00011
				0.857494
				1.0011
				0.989731
				1.01189
				0.940303
				0.998795
				0.999143
				0.999212
				0.947529
				0.998784
				1.00032
				0.999181
				1.02087
				0.999865
				0.983352
				1.00097
				0.999813
				0.965558
				1.00135
				0.999646
				1.00026
				0.953073
				1.00042
				1.03313
				1.00213
				0.999868
				0.999651
				1.00022
				1.01854
				0.999508
				0.989397
				1.00027
				1.00344
				0.99985
				1.00035
				0.999896
				0.830878
				0.888776
				0.995381
				1.00007
				1.00148
				1.03614
				1.00058
				1.005
				0.999733
				0.992399
				0.941974
				1.00035
				1.00233
				0.999241
				1.01692
				1.00498
				1
				1.00234
				1.00042
				0.999888
				0.999899
				1.0068
				1.00312
				1.00438
				1.00086
				0.99438
				0.999916
				1.0218
				1.01055
				0.995187
				1.00028
				1.00248
				1.00041
				1.00024
				0.999736
				1.0036
				1.00118
				0.982403
				0.997195
				1.02848
				0.999329
				0.999109
				1.01092
				1.03212
				0.999692
				1.00009
				0.99638
				1.0039
				1.00022
				1.00071
				0.97531
				0.981397
				0.999449
				1.00192
				1.00053
				1.00086
				1.00069
				0.99858
				1.0007
				0.999503
				0.999687
				1.00036
				0.999254
				1.00085
				1.00062
				0.904463
				1.00037
				0.999862
				0.999424
				0.996866
				1.018
				0.997897
				0.904703
				1.00064
				1.00017
				1.00918
				1.04284
				1.02999
				1.01018
				1.00017
				1.00024
				0.999878
				1.00031
				1.00196
				1.00097
				0.897305
				1.00022
				0.951763
				0.983819
				1.00021
				0.980501
				0.99838
				1.00027
				0.999191
				1.04839
				1.01709
				1.00541
				0.929387
				0.999623
				1.00036
				0.782617
				1.05275
				1.00006
				1.00008
				0.999737
				1.00037
				0.954255
				0.86229
				0.99921
				0.999632
				0.999746
				0.973341
				0.986519
				1.00003
				0.999069
				0.999905
				0.990413
				1.00046
				0.973529
				0.999464
				0.999938
				1.00021
				1.00068
				1.00023
				1.00077
				0.998433
				0.952005
				1.00108
				1.01404
				0.998986
				1.00374
				1.04744
				0.994272
				0.998637
				1.00128
				1.03239
				1.00016
				0.99548
				1.00125
				1.00063
				0.999617
				1.00261
				1.0002
				0.983704
				0.990812
				0.831085
				0.898405
				1.00061
				0.999748
				0.998553
				1.03212
				0.998475
				0.867314
				1.0002
				1.00021
				1.00015
				1.00058
				1.03879
				0.99686
				1.04554
				1.00059
				1.00036
				0.999514
				1.0061
				1.01016
				1.00281
				1.00034
				1.00077
				1.03193
				0.9999
				1.05256
				1.00052
				0.997333
				0.792631
				0.99915
				0.960047
				0.998916
				1.01137
				1.00022
				0.999538
				0.999413
				1.00018
				1.00904
				1.00026
				1.00954
				1.00007
				1.00016
				1.00289
				1.00024
				1.00524
				1.00092
				1.0037
				0.999615
				1.00122
				1.01054
				0.982432
				0.940955
				0.99684
				1.00063
				1.00022
				0.999765
				1.00194
				0.999902
				0.949143
				0.999596
				1.00032
				1
				1.00143
				1.00036
				1.02695
				0.99718
				0.998644
				1.00009
				0.844997
				0.998686
				1.00375
				1.00042
				1.00095
				1.0019
				0.801414
				1.00114
				1.0003
				0.993729
				0.998988
				0.999205
				0.919452
				0.97763
				1.00001
				1.00066
				0.997654
				1.00212
				1.00551
				1.02498
				1.00018
				0.99981
				1.00154
				1.00455
				1.00066
				0.997801
				1.01731
				0.999914
				0.998689
				0.965882
				0.998877
				0.999987
				0.999399
				0.975347
				1.00022
				1.00021
				1.00029
				0.999898
				1.0002
				0.999928
				1.00317
				0.99532
				1.00611
				1.00035
				0.993411
				1.00005
				1.00041
				0.890251
				1.0002
				0.999484
				1.0002
				1.00035
				1.00029
				0.999602
				0.92181
				1.00451
				0.999929
				0.954024
				1.00019
				1.00083
				1.00247
				1.01753
				0.999663
				0.999581
				0.998131
				0.999605
				1.00486
				1.00024
				1.00024
				1.0031
				0.999146
				1.00075
				1.00009
				1.00075
				1.04757
				1.00043
				0.998611
				1.00019
				0.999777
				1.00019
				1.00052
				1.00015
				0.999648
				0.99925
				0.998969
				0.980504
				0.999811
				0.999475
				0.981773
				0.999924
				0.879428
				0.966685
				1.00749
				0.998937
				1.00042
				0.977236
				1.01665
				0.999901
				0.99556
				1.0453
				1.00036
				0.998134
				0.999344
				0.985975
				1.00256
				1.00006
				1.00008
				1.00027
				0.999503
				1.00145
				0.999776
				0.999359
				0.999972
				1.00006
				0.971609
				1.00147
				1.00038
				1.00008
				1.0005
				0.999948
				1.0061
				0.980103
				0.997776
				0.983782
				1.00051
				1.00041
				1.02254
				1.00012
				1.00304
				1.0001
				0.999251
				0.999925
				1.0005
				0.98644
				1.00004
				0.832488
				0.924192
				1.00013
				1.00021
				1.00019
				1.00026
				1.00117
				1.00288
				1.0208
				1.0385
				0.957632
				0.994801
				1.00059
				1.00013
				0.978641
				1.00024
				0.999971
				1.00008
				0.987342
				1.00059
				1.00017
				0.998118
				0.998355
				1.07206
				0.999919
				1.00002
				1.00006
				1.04422
				0.999773
				1.00655
				0.973765
				0.999923
				1.00016
				1.00037
				1.04156
				1.00998
				0.995432
				0.999721
				1.00849
				0.999497
				0.851245
				0.999292
				0.999044
				1.00029
				0.999454
				1.0003
				0.823349
				0.98021
				1.00124
				1.00034
				1.0006
				0.99834
				1.00862
				0.930435
				0.94446
				1.00378
				1.00223
				0.991687
				1.00023
				1.00124
				1.00223
				0.989083
				0.998316
				1.00117
				1.00036
				0.926499
				0.998858
				1.00319
				0.99017
				1.00392
				0.997803
				1.03215
				1.00215
				0.966821
				0.999942
				1.00059
				1.00003
				0.961327
				1.00029
				0.999957
				0.80495
				1.00061
				1.0011
				1.00038
				1.00011
				1.00015
				1.01567
				1.05204
				0.990957
				0.88244
				0.973046
				1.03459
				0.795328
				0.999408
				1.00923
				1.00122
				1.00021
				0.874578
				0.999934
				0.999964
				0.989437
				1.00037
				0.999426
				1.00018
				1.00038
				1.001
				1.00038
				1.0105
				0.999862
				0.999543
				1.00131
				0.998962
				1.00006
				1.00059
				0.997802
				1.00061
				0.999511
				1.00018
				0.982742
				1.00308
				0.999924
				1.00189
				1.03716
				1.00079
				1.01819
				1.00037
				0.976496
				0.998999
				1.00006
				0.969406
				0.903111
				1.0002
				1.00008
				0.999142
				1.00353
				1.00493
				1.01703
				0.967873
				0.995024
				0.807015
				0.977701
				0.90668
				1.00019
				0.946749
				1.00048
				1.00722
				1.0006
				1.00001
				1.00039
				0.99967
				1.00022
				0.888633
				1.00073
				1.00868
				0.999685
				0.99729
				1.0084
				0.999842
				0.8149
				0.996159
				1.00696
				1.00034
				0.999606
				1.00117
				1.00167
				1.0004
				0.998898
				0.996763
				0.882926
				1.03096
				1.0001
				1.00022
				0.999482
				0.997804
				1.00037
				1.00075
				1.00013
				0.978862
				0.96053
				1.00136
				0.999586
				1.01495
				1.00752
				0.943049
				0.999913
				1.00036
				0.94038
				1.02269
				0.983137
				0.996154
				0.998665
				1.00026
				1.00478
				1.00036
				1.00004
				0.980668
				0.986553
				0.99044
				1.00168
				1.0006
				1.00321
				1.0001
				1.03804
				0.979298
				1.01207
				1.0045
				0.997976
				1.00017
				0.99935
				0.995073
				0.983644
				0.989439
				1.00115
				1.00046
				1.00054
				1.00113
				0.999998
				1.00005
				0.995314
				1.0004
				1.0007
				1.03625
				1.00135
				1.04507
				0.999768
				0.984597
				1.00038
				1.00267
				0.997233
				1.00022
				0.99847
				1.03796
				0.998228
				1.00011
				1.00028
				1.00866
				1.00044
				1.03895
				1.00033
				0.984436
				1.01095
				0.998782
				1.02469
				0.999727
				0.999587
				1.00034
				1.0004
				0.998903
				1.00002
				1.03456
				1.00029
				1.03213
				1.00036
				0.998822
				0.998776
				1.00343
				0.837705
				1.00023
				0.999805
				0.955126
				1.00184
				1.00034
				1.00042
				1.0003
				1.00041
				1.00234
				1.00103
				1.00415
				0.993789
				0.999326
				0.999847
				1.00119
				1.00062
				1.00083
				0.975929
				0.996269
				0.927288
				0.997921
				0.947005
				1.00216
				0.998199
				0.985811
				0.998999
				1.03275
				1.00417
				0.99999
				1.00026
				1.01579
				0.994405
				1.00975
				0.992105
				0.995599
				1.00367
				0.999516
				1.00049
				0.791608
				0.984344
				0.988476
				0.99994
				1.05004
				1.0004
				0.977258
				0.999212
				1.00007
				1.00035
				0.999195
				1.00056
				1.05257
				1.00034
				0.999726
				0.997729
				1.00016
				0.999615
				1.0019
				1.01381
				1.00056
				0.999834
				0.999673
				0.999152
				1.01377
				0.998193
				0.959955
				0.953169
				1.0006
				1.00013
				1.00259
				0.968217
				1.0017
				0.99751
				1.00422
				1.0675
				0.999798
				0.926066
				1.00027
				0.999934
				1.00022
				0.999815
				0.964309
				1.00013
				1.00207
				0.999233
				0.997273
				0.946623
				1.00039
				0.999656
				1.00026
				1
				1.00552
				1.00016
				1.0002
				0.999918
				0.999897
				0.886667
				0.99174
				0.999122
				1.01484
				0.967505
				0.999691
				0.9028
				0.999941
				0.999442
				0.999446
				0.981855
				0.998273
				1.00026
				1.00026
				0.919669
				0.967095
				1.00443
				1.04002
				1.00221
				1.00105
				1.00045
				1.01366
				1.00425
				1.00013
				0.870547
				0.990077
				0.857786
				0.993245
				0.999989
				0.977234
				1.00051
				1.02576
				1.00023
				0.99888
				0.997926
				1.00013
				1.02489
				0.997619
				1.02928
				1.0655
				1.00029
				0.999866
				1.00018
				0.99976
				1.04578
				0.998249
				1.00041
				0.999465
				1.00244
				0.995696
				0.945271
				0.999996
				1.00032
				1.04455
				1.01237
				0.992399
				1.00028
				0.990575
				1.01988
				1.00014
				1.00033
				0.99999
				1.00035
				1.00102
				0.851278
				1.00399
				1.00004
				1.00027
				1.0003
				1.00041
				1.0069
				0.992431
				0.983807
				1.00032
				1.00026
				1.00043
				0.959859
				1.00079
				0.9996
				1.00072
				0.999422
				1.00037
				1.00073
				0.998691
				1.0381
				0.9994
				1.00011
				0.993326
				1.00042
				0.998059
				0.983005
				1.00032
				0.999919
				1.00125
				0.999946
				1.00052
				1.0003
				1.00023
				1.0031
				0.999723
				1.0003
				0.999259
				1.00003
				0.998799
				0.999437
				0.992661
				0.893018
				0.968542
				1.0022
				1.00193
				1.03794
				0.857577
				0.998919
				0.999877
				0.971861
				1.00078
				1.07361
				1.04047
				1.00031
				1.00102
				0.944902
				0.99982
				0.983005
				1.01962
				1.00039
				0.999578
				1.01426
				1.00007
				0.964527
				1.00017
				0.999778
				1.03467
				0.999737
				1.00047
				0.998457
				1.00126
				0.999375
				0.999024
				0.999741
				0.999886
				0.953601
				1.00017
				1.01151
				1.00045
				1.00031
				1.00037
				0.995839
				0.999544
				1.00015
				1.00043
				0.99867
				1.05032
				1.00017
				0.99689
				1.00019
				0.859327
				0.999345
				1.00023
				1.00498
				1.04147
				1.05276
				0.999924
				1.00038
				1.00299
				0.918348
				1.00026
				0.993649
				0.999448
				1.00298
				0.975742
				1.0004
				1.01873
				0.998025
				1.00037
				1.00011
				0.854754
				1.0002
				1.00166
				0.999548
				0.870624
				0.86756
				0.99982
				0.997578
				1.01903
				1.00162
				1.00069
				1.00012
				1.00931
				0.962377
				0.854258
				0.921911
				0.995824
				1.00037
				0.945098
				1.02477
				1.00027
				0.971414
				0.9967
				0.9982
				1.04262
				1.00019
				1.00035
				0.999731
				0.99836
				1.00022
				1.00005
				0.976706
				0.978186
				0.999952
				0.996973
				0.998241
				0.958777
				1.0007
				1.00381
				0.97813
				0.999602
				1.00018
				1.00036
				1.00021
				0.998246
				0.994998
				1.00024
				0.999016
				0.999442
				0.994064
				1.00023
				1.02673
				0.994508
				1.00034
				1.00041
				0.885245
				1.0009
				0.997631
				0.711204
				0.997965
				1.02183
				1.00078
				1.00094
				1.03967
				1.02965
				1.00547
				1.0003
				1.01644
				0.996927
				0.999979
				0.808591
				0.998384
				0.986531
				1.00066
				1.00147
				1.00066
				0.999431
				0.890063
				0.997781
				0.998052
				1.00033
				1.00005
				0.999152
				0.998972
				1.00017
				1.00019
				1.04941
				1.00052
				0.998129
				0.996565
				0.999584
				1.00083
				1.00102
				0.929781
				1.04278
				1.00008
				0.978023
				1.00146
				1.03774
				0.981876
				0.881101
				1.01716
				1.00154
				1.00122
				1.00052
				0.986017
				0.996333
				1.02086
				1.00113
				1.00045
				1.00155
				1.00488
				1.002
				0.998884
				0.997582
				0.998546
				1.00039
				1.0032
				1.02161
				0.992704
				1.00142
				1.00182
				1.00017
				1.00011
				1.00018
				1.0005
				1.00042
				1.00013
				0.998114
				0.960093
				0.978955
				0.999841
				1.00031
				0.945824
				0.982076
				1.00021
				1.00623
				0.99972
				1.00001
				0.882255
				1.00007
				0.927615
				0.999552
				1.0582
				0.999576
				0.999928
				0.997271
				0.809247
				1.00176
				1.00737
				1.04337
				0.999908
				0.994203
				1.00046
				1.00012
				1.00194
				1.00221
				0.885397
				1.00023
				0.998562
				1.0021
				1.00017
				0.998069
				0.972134
				1.0003
				1.00065
				1.00192
				1.00019
				0.999436
				1.05974
				0.998125
				0.999947
				1.00206
				1.0006
				0.986456
				0.998669
				1.00054
				1.01424
				0.999663
				0.863795
				1.00372
				0.974768
				0.983774
				0.927048
				1.0013
				0.993905
				0.869353
				1.00018
				1.00867
				1.00068
				1.00006
				0.998429
				0.972007
				0.999749
				0.994352
				0.999495
				1.00009
				1.0032
				1.01518
				1.00016
				0.913479
				1.00069
				0.843556
				0.99995
				0.998972
				0.999864
				0.970071
				1.00428
				1.0137
				1.00018
				1.00005
				0.725821
				1.00213
				1.00054
				1.00118
				1.00021
				1.01526
				0.983248
				0.998388
				1.03614
				1.04853
				1.00202
				0.999321
				1.00063
				0.999491
				0.999809
				1.0002
				1.00031
				1.00035
				0.999758
				1.0002
				1.00214
				0.938258
				1.001
				1.00031
				1.00008
				1.00325
				1.02373
				1.00119
				1.03396
				0.999624
				0.999615
				0.945757
				1.00003
				1.0003
				0.977373
				1.04098
				0.898202
				0.999437
				0.99562
				1.05095
				1.00015
				1.01473
				0.999101
				1.00041
				1.0001
				1.0002
				1.00043
				1.00071
				1.00312
				0.999835
				1.00047
				0.999086
				1.00313
				1.00033
				0.999671
				0.980884
				0.990061
				0.999387
				1.00035
				0.999888
				1.04902
				0.998845
				0.998752
				0.997849
				1.00033
				1.00021
				0.999589
				1.00148
				0.999356
				0.92026
				0.737938
				0.998387
				1.0034
				1.00001
				0.997902
				0.999795
				1.00174
				1.00033
				1.00172
				0.996064
				1.00032
				1.00016
				1.03667
				1.00067
				0.99869
				1.00001
				0.783085
				0.999092
				0.894166
				0.99975
				1.00193
				0.999552
				0.862444
				1.00365
				1.00022
				1.02209
				0.998812
				1.0003
				0.99836
				1.00035
				1.00029
				1.00011
				1.00021
				0.99587
				0.999081
				1.00034
				0.999441
				0.927139
				0.793574
				1.0001
				0.999309
				0.999423
				0.999689
				0.99674
				0.999654
				1.00017
				1.0012
				0.997092
				0.999702
				0.999662
				0.999214
				1.00173
				0.971836
				0.990302
				0.9724
				0.9993
				0.795202
				1.00055
				0.997314
				1.05392
				0.93894
				0.99994
				0.999079
				1.00033
				1.00119
				1.00601
				1.00039
				1.02132
				0.995362
				0.999812
				1.01694
				0.999153
				1.00009
				0.952361
				0.979088
				1.00011
				1.00256
				0.992822
				0.868496
				1.00243
				1.00874
				1.00026
				1.00025
				0.999704
				1.01571
				1.00043
				0.999654
				0.987298
				0.990944
				0.999431
				1.00012
				1.02697
				0.999741
				1.00007
				1.00031
				1.00111
				0.842652
				0.99931
				0.998812
				1.0198
				1.0001
				0.999471
				1.00534
				0.998795
				0.99958
				0.999497
				1.00028
				1.01488
				1.00289
				0.991886
				1.00005
				0.997776
				0.99944
				0.823529
				1.00037
				1.02072
				0.999237
				0.999941
				1.0002
				1.02987
				0.978524
				0.999541
				1.0002
				0.999392
				0.9991
				1.00052
				0.867489
				1.00026
				0.995413
				1.00008
				1.00095
				0.907865
				0.990299
				1
				1.00046
				0.999907
				1.00186
				1.0003
				0.997215
				1.00494
				1.00132
				1.00011
				0.999897
				1.00047
				1
				1.00036
				0.802227
				0.820901
				0.985922
				1.00009
				0.99966
				0.962487
				0.999869
				1.03186
				0.989471
				0.999265
				0.999813
				0.999215
				1.00299
				1.0002
				0.997438
				1.00013
				1.02204
				1.00161
				0.99571
				0.999756
				1.00005
				1.00026
				0.995319
				0.993642
				0.978491
				1.00022
				0.999489
				0.985733
				0.998619
				1.00048
				0.999676
				0.999985
				0.999107
				0.999297
				1.00102
				0.996255
				0.999685
				0.999578
				1.0383
				1.01889
				1.00242
				0.997634