<VTKFile type="UnstructuredGrid" version="0.1" byte_order="LittleEndian">
<UnstructuredGrid>
	<Piece NumberOfPoints="4224" NumberOfCells="8192">
		<CellData Scalars="density" Vectors="velocity">
			<DataArray type="Float64" Name="density" Format="ascii">
				1.06592
				1.06548
				1.06508
				1.06499
				1.06363
				1.06378
				1.06144
				1.06202
				1.05817
				1.05943
				1.0536
				1.05568
				1.04766
				1.05067
				1.04034
				1.04434
				1.03168
				1.0367
				1.02176
				1.02782
				1.01068
				1.01777
				0.998552
				1.00667
				0.985496
				0.994611
				0.971632
				0.981715
				0.957062
				0.968092
				0.94191
				0.953841
				0.926261
				0.939077
				0.91025
				0.923888
				0.893971
				0.908398
				0.877561
				0.89271
				0.861161
				0.876951
				0.844863
				0.861253
				0.828841
				0.845731
				0.813282
				0.830558
				0.798363
				0.815916
				0.784318
				0.801992
				0.771326
				0.789011
				0.759721
				0.777198
				0.749839
				0.766881
				0.742013
				0.758383
				0.736444
				0.751985
				0.733625
				0.747986
				0.733527
				0.74665
				0.736327
				0.748011
				0.741756
				0.752039
				0.74952
				0.758454
				0.759346
				0.766976
				0.770931
				0.777314
				0.783865
				0.789146
				0.797899
				0.802142
				0.812787
				0.816073
				0.828317
				0.830716
				0.844307
				0.845875
				0.860529
				0.861373
				0.876864
				0.877032
				0.893192
				0.892729
				0.909333
				0.908346
				0.925238
				0.923739
				0.940733
				0.938831
				0.95575
				0.95349
				0.970186
				0.967641
				0.983962
				0.981192
				0.996997
				0.994067
				1.0092
				1.00619
				1.02052
				1.01749
				1.03089
				1.0279
				1.04026
				1.03737
				1.04856
				1.04586
				1.05576
				1.0533
				1.06182
				1.05966
				1.06671
				1.06492
				1.0704
				1.06903
				1.07287
				1.07199
				1.07411
				1.07377
				1.07411
				1.07436
				1.07287
				1.07377
				1.0704
				1.07199
				1.06671
				1.06903
				1.06182
				1.06492
				1.05576
				1.05966
				1.04856
				1.0533
				1.04026
				1.04586
				1.0309
				1.03738
				1.02052
				1.0279
				1.00921
				1.01749
				0.996999
				1.00619
				0.983964
				0.994068
				0.970188
				0.981194
				0.955751
				0.967643
				0.940726
				0.953487
				0.925243
				0.938833
				0.909344
				0.923745
				0.893189
				0.908346
				0.876866
				0.892731
				0.860531
				0.877033
				0.844308
				0.861374
				0.82832
				0.845875
				0.812801
				0.830725
				0.797894
				0.816074
				0.783869
				0.802145
				0.770934
				0.789147
				0.759349
				0.777318
				0.749524
				0.766979
				0.741759
				0.758458
				0.736331
				0.752043
				0.733531
				0.748015
				0.733629
				0.746654
				0.736447
				0.74799
				0.742017
				0.751989
				0.749843
				0.758387
				0.759724
				0.766884
				0.77133
				0.777201
				0.784321
				0.789014
				0.798366
				0.801996
				0.813285
				0.815919
				0.828844
				0.830561
				0.844865
				0.845734
				0.861164
				0.861256
				0.877564
				0.876954
				0.893974
				0.892713
				0.910252
				0.9084
				0.926256
				0.923885
				0.941916
				0.93908
				0.957064
				0.953844
				0.971633
				0.968094
				0.985498
				0.981717
				0.998554
				0.994612
				1.01068
				1.00667
				1.02176
				1.01777
				1.03168
				1.02782
				1.04034
				1.0367
				1.04766
				1.04434
				1.0536
				1.05067
				1.05817
				1.05568
				1.06144
				1.05943
				1.06363
				1.06202
				1.06508
				1.06378
				1.06592
				1.06499
				1.06483
				1.06613
				1.06391
				1.06572
				1.0625
				1.06465
				1.06055
				1.06301
				1.05772
				1.06056
				1.05379
				1.05701
				1.04872
				1.05228
				1.0425
				1.04635
				1.03515
				1.03923
				1.02674
				1.03097
				1.01735
				1.02167
				1.00708
				1.0114
				0.996003
				1.00027
				0.98422
				0.988364
				0.971821
				0.975778
				0.95889
				0.962603
				0.945523
				0.948933
				0.931805
				0.934857
				0.917838
				0.920476
				0.903725
				0.905892
				0.889578
				0.891217
				0.875518
				0.876567
				0.86168
				0.862072
				0.848217
				0.84788
				0.835305
				0.834161
				0.823134
				0.821098
				0.811924
				0.808902
				0.801923
				0.797806
				0.793416
				0.788098
				0.78669
				0.780079
				0.78201
				0.774025
				0.779614
				0.770228
				0.779633
				0.768888
				0.782069
				0.770084
				0.786782
				0.773748
				0.793536
				0.779661
				0.802061
				0.78756
				0.812073
				0.797157
				0.823286
				0.808148
				0.83545
				0.820247
				0.848345
				0.833219
				0.861782
				0.846854
				0.875584
				0.860962
				0.889599
				0.875372
				0.90369
				0.889936
				0.917735
				0.904522
				0.931629
				0.919014
				0.945264
				0.9333
				0.958554
				0.947279
				0.971408
				0.960857
				0.983752
				0.97395
				0.995512
				0.986481
				1.00662
				0.998376
				1.01702
				1.00957
				1.02665
				1.01999
				1.03546
				1.02959
				1.04341
				1.03832
				1.05046
				1.04613
				1.05656
				1.05299
				1.0617
				1.05885
				1.06584
				1.06368
				1.06896
				1.06747
				1.07105
				1.07018
				1.07209
				1.07182
				1.07209
				1.07236
				1.07105
				1.07182
				1.06896
				1.07018
				1.06584
				1.06747
				1.0617
				1.06368
				1.05656
				1.05885
				1.05046
				1.05299
				1.04341
				1.04614
				1.03546
				1.03832
				1.02665
				1.02959
				1.01702
				1.01999
				1.00662
				1.00957
				0.995513
				0.998377
				0.983753
				0.986482
				0.971409
				0.973952
				0.958556
				0.960857
				0.945266
				0.94728
				0.931631
				0.933303
				0.917737
				0.919017
				0.903691
				0.904524
				0.889601
				0.889937
				0.875586
				0.875374
				0.861786
				0.860964
				0.848349
				0.846858
				0.835452
				0.833222
				0.823289
				0.820249
				0.812075
				0.808148
				0.802064
				0.797161
				0.793539
				0.787563
				0.786785
				0.779664
				0.782072
				0.773752
				0.779637
				0.770088
				0.779618
				0.768892
				0.782013
				0.770232
				0.786693
				0.774028
				0.79342
				0.780082
				0.801927
				0.788102
				0.811927
				0.797809
				0.823138
				0.808905
				0.835308
				0.821102
				0.84822
				0.834164
				0.861682
				0.847883
				0.875521
				0.862075
				0.88958
				0.87657
				0.903727
				0.891219
				0.91784
				0.905895
				0.931805
				0.920477
				0.945525
				0.934858
				0.958892
				0.948934
				0.971822
				0.962605
				0.984222
				0.97578
				0.996004
				0.988366
				1.00708
				1.00027
				1.01736
				1.01141
				1.02674
				1.02167
				1.03515
				1.03098
				1.0425
				1.03923
				1.04872
				1.04635
				1.05379
				1.05228
				1.05772
				1.05701
				1.06055
				1.06056
				1.0625
				1.06302
				1.06391
				1.06465
				1.06483
				1.06572
				1.06475
				1.06355
				1.06395
				1.06299
				1.06259
				1.06174
				1.06059
				1.06013
				1.0577
				1.05789
				1.05382
				1.05474
				1.04892
				1.0506
				1.043
				1.04547
				1.03611
				1.03937
				1.0283
				1.03234
				1.01964
				1.02445
				1.01019
				1.01577
				1.00003
				1.00636
				0.98923
				0.996298
				0.977856
				0.98565
				0.965984
				0.974486
				0.953694
				0.96288
				0.941066
				0.95091
				0.928191
				0.938657
				0.915163
				0.926211
				0.902088
				0.913669
				0.88908
				0.901138
				0.876266
				0.888735
				0.863794
				0.876594
				0.851824
				0.864864
				0.840538
				0.853714
				0.830144
				0.843331
				0.820874
				0.833928
				0.812982
				0.825739
				0.80673
				0.819011
				0.802363
				0.813985
				0.800086
				0.81087
				0.800017
				0.809823
				0.80216
				0.810892
				0.806397
				0.814025
				0.812531
				0.819069
				0.820317
				0.825812
				0.829497
				0.834013
				0.839811
				0.843425
				0.851029
				0.853813
				0.862943
				0.864967
				0.875371
				0.876696
				0.888146
				0.888834
				0.901124
				0.901233
				0.914176
				0.913758
				0.927187
				0.926293
				0.940054
				0.938733
				0.952679
				0.950981
				0.964979
				0.962951
				0.976871
				0.974563
				0.988286
				0.985746
				0.999156
				0.996432
				1.00942
				1.00656
				1.01902
				1.01608
				1.02791
				1.02494
				1.03604
				1.03309
				1.04337
				1.04048
				1.04986
				1.0471
				1.05549
				1.0529
				1.06022
				1.05785
				1.06403
				1.06193
				1.06691
				1.06513
				1.06883
				1.06742
				1.06979
				1.0688
				1.06979
				1.06927
				1.06883
				1.0688
				1.06691
				1.06742
				1.06403
				1.06513
				1.06022
				1.06193
				1.05549
				1.05785
				1.04986
				1.0529
				1.04337
				1.0471
				1.03604
				1.04049
				1.02791
				1.03309
				1.01902
				1.02494
				1.00942
				1.01608
				0.999156
				1.00656
				0.988287
				0.996433
				0.976872
				0.985747
				0.96498
				0.974564
				0.952681
				0.962953
				0.940056
				0.950983
				0.927189
				0.938734
				0.914178
				0.926295
				0.901126
				0.91376
				0.888148
				0.901235
				0.875373
				0.888836
				0.862946
				0.876699
				0.851032
				0.864969
				0.839813
				0.853816
				0.829499
				0.843428
				0.82032
				0.834016
				0.812534
				0.825815
				0.8064
				0.819072
				0.802163
				0.814028
				0.80002
				0.810895
				0.80009
				0.809826
				0.802366
				0.810873
				0.806733
				0.813988
				0.812985
				0.819014
				0.820876
				0.825741
				0.830147
				0.833931
				0.840542
				0.843334
				0.851826
				0.853716
				0.863797
				0.864867
				0.876269
				0.876597
				0.889082
				0.888737
				0.90209
				0.90114
				0.915165
				0.913671
				0.928193
				0.926213
				0.941068
				0.938658
				0.953696
				0.950911
				0.965986
				0.962882
				0.977857
				0.974487
				0.989231
				0.985651
				1.00003
				0.9963
				1.01019
				1.00636
				1.01964
				1.01577
				1.0283
				1.02445
				1.03611
				1.03234
				1.043
				1.03937
				1.04892
				1.04547
				1.05382
				1.0506
				1.05771
				1.05474
				1.06059
				1.05789
				1.06259
				1.06013
				1.06395
				1.06174
				1.06475
				1.063
				1.06109
				1.06271
				1.06007
				1.06227
				1.05864
				1.06116
				1.05683
				1.05951
				1.05427
				1.05715
				1.05086
				1.05393
				1.04662
				1.04988
				1.04156
				1.04498
				1.03573
				1.03929
				1.02917
				1.03282
				1.02193
				1.02562
				1.01406
				1.01773
				1.0056
				1.0092
				0.996593
				1.00007
				0.987099
				0.990403
				0.97717
				0.980244
				0.96687
				0.969662
				0.956267
				0.958723
				0.945438
				0.947505
				0.934466
				0.936092
				0.923446
				0.924575
				0.91248
				0.913056
				0.901686
				0.901648
				0.891191
				0.890475
				0.881143
				0.879681
				0.8717
				0.869422
				0.863045
				0.859876
				0.85537
				0.851237
				0.848882
				0.843718
				0.843786
				0.837541
				0.840266
				0.832919
				0.83847
				0.830034
				0.838475
				0.829019
				0.840284
				0.829918
				0.843814
				0.832688
				0.848919
				0.837201
				0.855415
				0.843278
				0.863095
				0.850705
				0.871755
				0.859263
				0.881199
				0.868739
				0.891249
				0.878938
				0.901746
				0.889684
				0.912545
				0.900817
				0.923519
				0.9122
				0.934553
				0.923704
				0.945547
				0.935221
				0.956409
				0.946649
				0.967058
				0.9579
				0.977419
				0.968892
				0.987426
				0.979551
				0.997016
				0.98981
				1.00614
				0.999609
				1.01474
				1.00889
				1.02277
				1.01761
				1.0302
				1.02572
				1.03699
				1.03318
				1.0431
				1.03994
				1.04851
				1.04599
				1.05319
				1.05129
				1.05713
				1.05581
				1.06029
				1.05954
				1.06268
				1.06246
				1.06428
				1.06455
				1.06508
				1.06581
				1.06508
				1.06623
				1.06428
				1.06581
				1.06268
				1.06455
				1.06029
				1.06246
				1.05713
				1.05954
				1.05319
				1.05581
				1.04851
				1.05129
				1.0431
				1.04599
				1.03699
				1.03994
				1.0302
				1.03318
				1.02277
				1.02572
				1.01474
				1.01761
				1.00614
				1.00889
				0.997017
				0.99961
				0.987427
				0.989811
				0.977421
				0.979552
				0.96706
				0.968893
				0.956411
				0.957901
				0.945549
				0.946651
				0.934555
				0.935223
				0.92352
				0.923706
				0.912547
				0.912201
				0.901748
				0.900819
				0.891251
				0.889686
				0.881201
				0.87894
				0.871757
				0.868741
				0.863098
				0.859265
				0.855417
				0.850707
				0.848922
				0.84328
				0.843817
				0.837204
				0.840286
				0.83269
				0.838477
				0.829921
				0.838472
				0.829022
				0.840269
				0.830037
				0.843788
				0.832922
				0.848885
				0.837544
				0.855373
				0.843721
				0.863047
				0.851239
				0.871703
				0.859878
				0.881145
				0.869424
				0.891193
				0.879683
				0.901688
				0.890478
				0.912482
				0.90165
				0.923448
				0.913058
				0.934468
				0.924577
				0.945439
				0.936094
				0.956269
				0.947507
				0.966871
				0.958724
				0.977171
				0.969663
				0.9871
				0.980246
				0.996594
				0.990404
				1.0056
				1.00008
				1.01406
				1.0092
				1.02193
				1.01773
				1.02917
				1.02562
				1.03573
				1.03282
				1.04156
				1.03929
				1.04662
				1.04498
				1.05086
				1.04988
				1.05427
				1.05393
				1.05683
				1.05715
				1.05864
				1.05951
				1.06007
				1.06116
				1.06109
				1.06227
				1.05934
				1.05787
				1.05854
				1.05728
				1.05721
				1.05602
				1.05528
				1.0545
				1.05263
				1.05244
				1.04927
				1.04964
				1.04523
				1.04612
				1.04054
				1.04194
				1.03522
				1.03713
				1.02928
				1.03173
				1.02276
				1.02576
				1.01566
				1.01925
				1.00803
				1.01221
				0.999891
				1.00468
				0.991295
				0.996703
				0.982289
				0.988311
				0.97293
				0.979556
				0.963285
				0.970498
				0.953422
				0.961199
				0.943422
				0.951733
				0.933373
				0.942179
				0.923372
				0.932628
				0.913528
				0.923179
				0.903961
				0.913942
				0.894807
				0.905043
				0.886213
				0.896616
				0.878344
				0.88881
				0.871374
				0.881789
				0.865487
				0.87572
				0.86086
				0.870774
				0.857654
				0.867107
				0.855993
				0.864849
				0.855943
				0.86409
				0.857507
				0.864858
				0.860618
				0.867125
				0.865155
				0.870801
				0.870961
				0.875756
				0.877858
				0.881833
				0.885664
				0.888862
				0.894206
				0.896675
				0.903318
				0.90511
				0.912854
				0.914019
				0.922678
				0.923266
				0.932672
				0.932732
				0.942729
				0.942305
				0.952752
				0.95189
				0.962657
				0.961399
				0.972366
				0.970756
				0.981812
				0.97989
				0.990931
				0.988738
				0.999668
				0.997246
				1.00797
				1.00536
				1.0158
				1.01304
				1.02311
				1.02024
				1.02986
				1.02693
				1.03603
				1.03308
				1.04158
				1.03865
				1.0465
				1.04362
				1.05075
				1.04797
				1.05431
				1.05169
				1.05719
				1.05474
				1.05935
				1.05714
				1.0608
				1.05885
				1.06153
				1.05988
				1.06153
				1.06023
				1.0608
				1.05988
				1.05935
				1.05885
				1.05719
				1.05714
				1.05431
				1.05474
				1.05075
				1.05169
				1.0465
				1.04797
				1.04159
				1.04362
				1.03603
				1.03865
				1.02987
				1.03308
				1.02311
				1.02694
				1.0158
				1.02025
				1.00797
				1.01304
				0.999669
				1.00536
				0.990932
				0.997247
				0.981813
				0.988739
				0.972367
				0.979891
				0.962658
				0.970757
				0.952753
				0.961401
				0.94273
				0.951891
				0.932674
				0.942307
				0.92268
				0.932733
				0.912855
				0.923268
				0.90332
				0.914021
				0.894208
				0.905112
				0.885667
				0.896677
				0.87786
				0.888864
				0.870963
				0.881835
				0.865157
				0.875758
				0.86062
				0.870803
				0.857509
				0.867127
				0.855945
				0.864861
				0.855996
				0.864092
				0.857657
				0.864852
				0.860863
				0.867109
				0.865489
				0.870776
				0.871377
				0.875723
				0.878346
				0.881791
				0.886215
				0.888813
				0.894809
				0.896617
				0.903963
				0.905044
				0.91353
				0.913944
				0.923374
				0.923181
				0.933375
				0.932629
				0.943424
				0.942181
				0.953423
				0.951734
				0.963286
				0.9612
				0.972932
				0.970499
				0.98229
				0.979557
				0.991296
				0.988312
				0.999892
				0.996704
				1.00803
				1.00468
				1.01566
				1.01221
				1.02276
				1.01925
				1.02928
				1.02576
				1.03522
				1.03173
				1.04054
				1.03713
				1.04523
				1.04194
				1.04927
				1.04612
				1.05263
				1.04964
				1.05528
				1.05244
				1.05721
				1.0545
				1.05854
				1.05602
				1.05934
				1.05728
				1.05331
				1.05515
				1.05234
				1.05475
				1.05105
				1.05375
				1.04943
				1.05225
				1.04718
				1.05012
				1.04431
				1.04737
				1.0409
				1.04407
				1.03698
				1.04024
				1.03257
				1.03589
				1.02769
				1.03103
				1.02234
				1.02567
				1.01654
				1.01982
				1.01031
				1.01349
				1.00367
				1.00671
				0.996654
				0.999511
				0.9893
				0.991935
				0.981656
				0.984026
				0.973775
				0.975838
				0.965718
				0.96743
				0.957551
				0.958868
				0.949351
				0.950227
				0.941201
				0.941588
				0.933195
				0.933045
				0.925435
				0.924698
				0.918037
				0.91666
				0.911124
				0.909058
				0.904827
				0.902024
				0.899287
				0.895705
				0.89464
				0.890249
				0.891017
				0.885804
				0.888534
				0.882503
				0.887271
				0.880459
				0.887276
				0.879743
				0.888548
				0.880383
				0.891043
				0.882353
				0.894676
				0.885583
				0.899334
				0.889964
				0.904888
				0.895362
				0.911198
				0.901631
				0.918126
				0.908624
				0.925541
				0.916195
				0.933319
				0.924211
				0.941348
				0.932547
				0.949527
				0.941093
				0.957763
				0.949745
				0.965974
				0.958413
				0.974088
				0.967017
				0.982038
				0.975485
				0.989767
				0.983751
				0.997223
				0.991758
				1.00436
				0.999455
				1.01113
				1.00679
				1.01751
				1.01374
				1.02346
				1.02024
				1.02895
				1.02629
				1.03396
				1.03183
				1.03846
				1.03686
				1.04244
				1.04134
				1.04588
				1.04526
				1.04877
				1.04861
				1.05109
				1.05136
				1.05284
				1.05352
				1.05401
				1.05506
				1.05459
				1.05599
				1.05459
				1.0563
				1.05401
				1.05599
				1.05284
				1.05506
				1.05109
				1.05352
				1.04877
				1.05136
				1.04588
				1.04861
				1.04244
				1.04526
				1.03846
				1.04134
				1.03396
				1.03686
				1.02895
				1.03183
				1.02346
				1.02629
				1.01751
				1.02024
				1.01113
				1.01374
				1.00436
				1.0068
				0.997223
				0.999456
				0.989768
				0.991759
				0.982039
				0.983752
				0.974089
				0.975486
				0.965975
				0.967019
				0.957764
				0.958415
				0.949528
				0.949746
				0.94135
				0.941094
				0.933321
				0.932549
				0.925542
				0.924212
				0.918128
				0.916197
				0.911199
				0.908625
				0.90489
				0.901633
				0.899336
				0.895364
				0.894678
				0.889966
				0.891045
				0.885585
				0.88855
				0.882355
				0.887278
				0.880385
				0.887273
				0.879745
				0.888536
				0.880461
				0.89102
				0.882505
				0.894642
				0.885806
				0.899289
				0.890251
				0.90483
				0.895707
				0.911125
				0.902027
				0.918039
				0.909059
				0.925437
				0.916662
				0.933196
				0.9247
				0.941202
				0.933046
				0.949352
				0.94159
				0.957552
				0.950228
				0.965719
				0.95887
				0.973777
				0.967431
				0.981657
				0.975839
				0.989301
				0.984027
				0.996655
				0.991935
				1.00367
				0.999512
				1.01031
				1.00671
				1.01654
				1.01349
				1.02234
				1.01982
				1.02769
				1.02567
				1.03257
				1.03103
				1.03698
				1.03589
				1.0409
				1.04024
				1.04431
				1.04407
				1.04718
				1.04737
				1.04943
				1.05012
				1.05105
				1.05225
				1.05234
				1.05375
				1.05331
				1.05475
				1.04991
				1.04826
				1.04928
				1.04775
				1.04819
				1.04669
				1.04657
				1.04544
				1.04439
				1.04373
				1.04174
				1.04146
				1.03866
				1.03872
				1.03515
				1.03557
				1.03121
				1.03202
				1.02684
				1.02806
				1.02204
				1.02371
				1.01684
				1.01898
				1.01124
				1.01386
				1.00528
				1.00839
				0.998976
				1.00259
				0.992373
				0.996477
				0.985509
				0.990104
				0.978434
				0.983508
				0.971201
				0.976737
				0.963871
				0.969849
				0.956513
				0.962903
				0.949203
				0.95597
				0.942026
				0.949127
				0.935076
				0.94246
				0.928456
				0.936062
				0.922276
				0.930035
				0.916656
				0.924486
				0.911716
				0.919529
				0.907576
				0.915276
				0.904348
				0.911835
				0.902128
				0.9093
				0.900986
				0.907749
				0.900959
				0.90723
				0.902049
				0.907761
				0.90422
				0.909324
				0.907402
				0.911871
				0.9115
				0.915327
				0.916405
				0.919596
				0.921998
				0.92457
				0.928157
				0.930138
				0.934766
				0.936186
				0.941715
				0.942609
				0.948899
				0.949304
				0.956228
				0.95618
				0.963615
				0.96315
				0.970985
				0.97014
				0.978272
				0.977081
				0.985413
				0.983911
				0.992355
				0.990577
				0.999052
				0.997031
				1.00546
				1.00323
				1.01154
				1.00914
				1.01727
				1.01472
				1.0226
				1.01994
				1.02752
				1.02479
				1.03201
				1.02923
				1.03605
				1.03325
				1.03961
				1.03683
				1.04269
				1.03997
				1.04527
				1.04264
				1.04735
				1.04483
				1.04891
				1.04655
				1.04996
				1.04778
				1.05048
				1.04852
				1.05048
				1.04877
				1.04996
				1.04852
				1.04891
				1.04778
				1.04735
				1.04655
				1.04527
				1.04483
				1.04269
				1.04264
				1.03961
				1.03997
				1.03605
				1.03684
				1.03201
				1.03325
				1.02752
				1.02923
				1.0226
				1.02479
				1.01727
				1.01994
				1.01154
				1.01472
				1.00546
				1.00914
				0.999053
				1.00323
				0.992356
				0.997032
				0.985414
				0.990578
				0.978272
				0.983912
				0.970987
				0.977082
				0.963616
				0.970141
				0.956229
				0.963151
				0.948901
				0.956181
				0.941716
				0.949306
				0.934768
				0.94261
				0.928159
				0.936188
				0.922
				0.930139
				0.916407
				0.924571
				0.911502
				0.919597
				0.907403
				0.915329
				0.904222
				0.911873
				0.902051
				0.909325
				0.900961
				0.907762
				0.900987
				0.907231
				0.90213
				0.90775
				0.904349
				0.909302
				0.907577
				0.911836
				0.911718
				0.915278
				0.916658
				0.919531
				0.922278
				0.924488
				0.928457
				0.930036
				0.935078
				0.936063
				0.942028
				0.942461
				0.949205
				0.949128
				0.956515
				0.955971
				0.963872
				0.962904
				0.971202
				0.96985
				0.978435
				0.976738
				0.98551
				0.983509
				0.992373
				0.990105
				0.998977
				0.996478
				1.00528
				1.00259
				1.01124
				1.00839
				1.01684
				1.01386
				1.02205
				1.01898
				1.02684
				1.02371
				1.03121
				1.02806
				1.03515
				1.03202
				1.03866
				1.03557
				1.04174
				1.03872
				1.04439
				1.04146
				1.04657
				1.04373
				1.0482
				1.04544
				1.04928
				1.04669
				1.04991
				1.04775
				1.04247
				1.04433
				1.04172
				1.04407
				1.04076
				1.04337
				1.03953
				1.04223
				1.03783
				1.04057
				1.0357
				1.03851
				1.03321
				1.03608
				1.03039
				1.03329
				1.02722
				1.03014
				1.02372
				1.02661
				1.01989
				1.02273
				1.01573
				1.01849
				1.01127
				1.01392
				1.00652
				1.00902
				1.0015
				1.00384
				0.996247
				0.998389
				0.990792
				0.992704
				0.985172
				0.986823
				0.979432
				0.980788
				0.973623
				0.97465
				0.9678
				0.968463
				0.962027
				0.96229
				0.956373
				0.956202
				0.950914
				0.950274
				0.945734
				0.944591
				0.940921
				0.939243
				0.936563
				0.934326
				0.932753
				0.929939
				0.929579
				0.926178
				0.92712
				0.923135
				0.925442
				0.920892
				0.924594
				0.919511
				0.9246
				0.919035
				0.925462
				0.919477
				0.927153
				0.920825
				0.929627
				0.923038
				0.932818
				0.926053
				0.936646
				0.929792
				0.941024
				0.934163
				0.945862
				0.939069
				0.951067
				0.944413
				0.956554
				0.9501
				0.962241
				0.95604
				0.968051
				0.962149
				0.973915
				0.96835
				0.979771
				0.974574
				0.985561
				0.980759
				0.991237
				0.986848
				0.996754
				0.992792
				1.00207
				0.998547
				1.00716
				1.00407
				1.01198
				1.00934
				1.01652
				1.01431
				1.02074
				1.01897
				1.02463
				1.02328
				1.02818
				1.02724
				1.03136
				1.03082
				1.03417
				1.03401
				1.0366
				1.03679
				1.03863
				1.03916
				1.04026
				1.04112
				1.04149
				1.04264
				1.04231
				1.04373
				1.04273
				1.04439
				1.04273
				1.04461
				1.04231
				1.04439
				1.04149
				1.04373
				1.04026
				1.04264
				1.03863
				1.04112
				1.0366
				1.03916
				1.03417
				1.03679
				1.03136
				1.03401
				1.02818
				1.03082
				1.02464
				1.02724
				1.02074
				1.02328
				1.01652
				1.01897
				1.01198
				1.01431
				1.00716
				1.00934
				1.00207
				1.00407
				0.996755
				0.998548
				0.991238
				0.992793
				0.985562
				0.986849
				0.979771
				0.98076
				0.973916
				0.974575
				0.968052
				0.968351
				0.962242
				0.96215
				0.956555
				0.956041
				0.951068
				0.950101
				0.945863
				0.944414
				0.941026
				0.93907
				0.936648
				0.934164
				0.932819
				0.929794
				0.929629
				0.926055
				0.927154
				0.923039
				0.925463
				0.920826
				0.924602
				0.919479
				0.924596
				0.919036
				0.925444
				0.919513
				0.927122
				0.920893
				0.929581
				0.923137
				0.932755
				0.926179
				0.936564
				0.92994
				0.940922
				0.934328
				0.945736
				0.939245
				0.950916
				0.944592
				0.956374
				0.950275
				0.962028
				0.956203
				0.967801
				0.962292
				0.973624
				0.968464
				0.979433
				0.974651
				0.985173
				0.980789
				0.990792
				0.986824
				0.996248
				0.992705
				1.0015
				0.99839
				1.00652
				1.00384
				1.01127
				1.00903
				1.01573
				1.01392
				1.01989
				1.01849
				1.02372
				1.02273
				1.02722
				1.02661
				1.03039
				1.03014
				1.03321
				1.0333
				1.0357
				1.03608
				1.03783
				1.03851
				1.03953
				1.04058
				1.04076
				1.04223
				1.04172
				1.04337
				1.04247
				1.04407
				1.03845
				1.03683
				1.0381
				1.03646
				1.03739
				1.03574
				1.03622
				1.03489
				1.03466
				1.0337
				1.0328
				1.0321
				1.03063
				1.03018
				1.02814
				1.02798
				1.02534
				1.02548
				1.02222
				1.0227
				1.01881
				1.01964
				1.01512
				1.0163
				1.01115
				1.0127
				1.00694
				1.00885
				1.00249
				1.00478
				0.997833
				1.0005
				0.993
				0.996034
				0.988024
				0.991421
				0.982944
				0.986694
				0.977804
				0.981891
				0.972654
				0.977058
				0.967552
				0.972246
				0.962559
				0.967509
				0.957743
				0.962911
				0.953177
				0.958518
				0.948939
				0.954398
				0.945107
				0.950627
				0.941759
				0.947276
				0.938972
				0.944418
				0.936812
				0.942117
				0.935335
				0.940432
				0.934581
				0.939404
				0.93457
				0.939063
				0.935305
				0.939417
				0.936764
				0.940459
				0.938909
				0.94216
				0.941683
				0.944476
				0.945022
				0.947352
				0.94885
				0.950723
				0.95309
				0.954516
				0.957662
				0.95866
				0.962491
				0.963081
				0.967503
				0.967709
				0.972631
				0.972478
				0.977812
				0.977326
				0.982991
				0.982198
				0.988115
				0.987042
				0.993139
				0.991813
				0.998024
				0.996471
				1.00273
				1.00098
				1.00724
				1.00531
				1.01151
				1.00943
				1.01552
				1.01332
				1.01926
				1.01696
				1.0227
				1.02033
				1.02584
				1.02341
				1.02865
				1.0262
				1.03113
				1.02868
				1.03327
				1.03085
				1.03507
				1.0327
				1.03651
				1.03421
				1.03759
				1.0354
				1.03832
				1.03624
				1.03868
				1.03675
				1.03868
				1.03692
				1.03832
				1.03675
				1.03759
				1.03624
				1.03651
				1.0354
				1.03507
				1.03421
				1.03327
				1.0327
				1.03113
				1.03085
				1.02865
				1.02868
				1.02584
				1.0262
				1.0227
				1.02341
				1.01926
				1.02033
				1.01552
				1.01696
				1.01151
				1.01332
				1.00724
				1.00943
				1.00273
				1.00531
				0.998025
				1.00098
				0.99314
				0.996471
				0.988115
				0.991814
				0.982991
				0.987042
				0.977813
				0.982198
				0.972632
				0.977327
				0.967504
				0.972478
				0.962492
				0.96771
				0.957663
				0.963082
				0.953091
				0.958661
				0.948851
				0.954518
				0.945023
				0.950724
				0.941685
				0.947354
				0.93891
				0.944477
				0.936766
				0.942161
				0.935306
				0.94046
				0.934572
				0.939418
				0.934582
				0.939064
				0.935336
				0.939405
				0.936813
				0.940433
				0.938973
				0.942119
				0.941761
				0.944419
				0.945108
				0.947278
				0.94894
				0.950628
				0.953179
				0.954399
				0.957744
				0.958519
				0.96256
				0.962912
				0.967553
				0.96751
				0.972655
				0.972246
				0.977804
				0.977059
				0.982945
				0.981892
				0.988025
				0.986695
				0.993001
				0.991422
				0.997834
				0.996034
				1.00249
				1.0005
				1.00694
				1.00478
				1.01115
				1.00885
				1.01512
				1.0127
				1.01881
				1.0163
				1.02222
				1.01964
				1.02534
				1.0227
				1.02814
				1.02549
				1.03063
				1.02798
				1.0328
				1.03018
				1.03466
				1.0321
				1.03622
				1.0337
				1.03739
				1.03489
				1.0381
				1.03574
				1.03845
				1.03646
				1.03117
				1.03281
				1.0307
				1.0327
				1.03011
				1.03235
				1.02933
				1.03161
				1.0282
				1.03049
				1.02676
				1.0291
				1.02508
				1.02745
				1.02314
				1.02552
				1.02097
				1.02333
				1.01855
				1.02087
				1.0159
				1.01816
				1.01304
				1.01522
				1.00996
				1.01204
				1.00669
				1.00865
				1.00323
				1.00506
				0.999626
				1.00129
				0.995882
				0.997364
				0.992031
				0.993306
				0.988105
				0.989148
				0.984138
				0.984925
				0.980171
				0.980677
				0.976249
				0.97645
				0.97242
				0.972294
				0.968737
				0.968262
				0.965258
				0.964412
				0.96204
				0.960807
				0.95914
				0.95751
				0.956618
				0.954583
				0.954527
				0.952088
				0.952913
				0.950081
				0.951817
				0.948608
				0.951264
				0.947708
				0.951272
				0.947401
				0.951838
				0.947698
				0.952948
				0.948591
				0.954576
				0.950056
				0.956685
				0.952059
				0.959225
				0.954551
				0.962144
				0.957478
				0.965384