<VTKFile type="UnstructuredGrid" version="0.1" byte_order="LittleEndian">
<UnstructuredGrid>
	<Piece NumberOfPoints="1088" NumberOfCells="2048">
		<CellData Scalars="density" Vectors="velocity">
			<DataArray type="Float64" Name="density" Format="ascii">
				1.05005
				1.05041
				1.05177
				1.04934
				1.04845
				1.04873
				1.03917
				1.04383
				1.02423
				1.03313
				1.00418
				1.01725
				0.979862
				0.996935
				0.95221
				0.97305
				0.92218
				0.946487
				0.890752
				0.918143
				0.85894
				0.888969
				0.827823
				0.860006
				0.798761
				0.832454
				0.773277
				0.807676
				0.754286
				0.787829
				0.743877
				0.774522
				0.745969
				0.770377
				0.75591
				0.778096
				0.775331
				0.789935
				0.800232
				0.81049
				0.829093
				0.835592
				0.860176
				0.86332
				0.892128
				0.892206
				0.92359
				0.921093
				0.953469
				0.949373
				0.981367
				0.976242
				1.00659
				1.00079
				1.02837
				1.02239
				1.04622
				1.04059
				1.05978
				1.05502
				1.06883
				1.06537
				1.07325
				1.07166
				1.07325
				1.07364
				1.06883
				1.07166
				1.05978
				1.06537
				1.04622
				1.05502
				1.02837
				1.04059
				1.00659
				1.02239
				0.981369
				1.00079
				0.953471
				0.976243
				0.923593
				0.949375
				0.892131
				0.921095
				0.860179
				0.892209
				0.829096
				0.863323
				0.800235
				0.835595
				0.775335
				0.810493
				0.755915
				0.789939
				0.745974
				0.778101
				0.743882
				0.770381
				0.75429
				0.774526
				0.773281
				0.787833
				0.798765
				0.80768
				0.827827
				0.832457
				0.858943
				0.860009
				0.890755
				0.888971
				0.922182
				0.918145
				0.952212
				0.946489
				0.979864
				0.973052
				1.00418
				0.996937
				1.02423
				1.01725
				1.03917
				1.03313
				1.04845
				1.04383
				1.05177
				1.04873
				1.05005
				1.04934
				1.04882
				1.0485
				1.04992
				1.05452
				1.04648
				1.05266
				1.04011
				1.04621
				1.02971
				1.03668
				1.01578
				1.02336
				0.998877
				1.00657
				0.979537
				0.986815
				0.958339
				0.964709
				0.935914
				0.940921
				0.913003
				0.916194
				0.890518
				0.891375
				0.869607
				0.8675
				0.851569
				0.845805
				0.838313
				0.828254
				0.830998
				0.816027
				0.831461
				0.811357
				0.838962
				0.815356
				0.852875
				0.826821
				0.870936
				0.84404
				0.891815
				0.865216
				0.914226
				0.888831
				0.937131
				0.913583
				0.959702
				0.938417
				0.981249
				0.962529
				1.00119
				0.985202
				1.01907
				1.0059
				1.03453
				1.0242
				1.04725
				1.0397
				1.05699
				1.05206
				1.06357
				1.06099
				1.06688
				1.06634
				1.06688
				1.06797
				1.06357
				1.06634
				1.05699
				1.06099
				1.04725
				1.05206
				1.03453
				1.0397
				1.01907
				1.02421
				1.00119
				1.0059
				0.98125
				0.985203
				0.959703
				0.962531
				0.937133
				0.938419
				0.914229
				0.913585
				0.891818
				0.888834
				0.870939
				0.86522
				0.852879
				0.844043
				0.838966
				0.826825
				0.831465
				0.81536
				0.831002
				0.811361
				0.838316
				0.816031
				0.851572
				0.828258
				0.86961
				0.845808
				0.89052
				0.867503
				0.913006
				0.891378
				0.935916
				0.916196
				0.958341
				0.940923
				0.979538
				0.964711
				0.998878
				0.986816
				1.01578
				1.00657
				1.02971
				1.02336
				1.04011
				1.03668
				1.04648
				1.04621
				1.04992
				1.05266
				1.04882
				1.05452
				1.0496
				1.04611
				1.05095
				1.04644
				1.04558
				1.04467
				1.03933
				1.04027
				1.03017
				1.03308
				1.01854
				1.02347
				1.00464
				1.01175
				0.988779
				0.998166
				0.971346
				0.983024
				0.952852
				0.966708
				0.933917
				0.949715
				0.915289
				0.932689
				0.897904
				0.916435
				0.882884
				0.901937
				0.871565
				0.890328
				0.865373
				0.882746
				0.865255
				0.880262
				0.871024
				0.8832
				0.881911
				0.891061
				0.896617
				0.90288
				0.91384
				0.917517
				0.932456
				0.933866
				0.951539
				0.951016
				0.970348
				0.968232
				0.988277
				0.984917
				1.00486
				1.00057
				1.01971
				1.01479
				1.03253
				1.02727
				1.04306
				1.03777
				1.05111
				1.04611
				1.05656
				1.05214
				1.0592
				1.05578
				1.0592
				1.05703
				1.05656
				1.05578
				1.05111
				1.05214
				1.04306
				1.04611
				1.03253
				1.03777
				1.01971
				1.02727
				1.00486
				1.01479
				0.988278
				1.00057
				0.970349
				0.984918
				0.951541
				0.968234
				0.932457
				0.951017
				0.913842
				0.933868
				0.896619
				0.917519
				0.881913
				0.902882
				0.871027
				0.891064
				0.865258
				0.883202
				0.865376
				0.880264
				0.871568
				0.882749
				0.882887
				0.890331
				0.897906
				0.901939
				0.915292
				0.916437
				0.93392
				0.932691
				0.952854
				0.949717
				0.971347
				0.966709
				0.98878
				0.983025
				1.00464
				0.998167
				1.01854
				1.01175
				1.03017
				1.02347
				1.03933
				1.03308
				1.04558
				1.04028
				1.05095
				1.04467
				1.0496
				1.04644
				1.0396
				1.04048
				1.03808
				1.0433
				1.03605
				1.04087
				1.03117
				1.03683
				1.02466
				1.03061
				1.01675
				1.02269
				1.00757
				1.01318
				0.997238
				1.00224
				0.985967
				0.990081
				0.97405
				0.977
				0.961897
				0.963397
				0.950045
				0.949784
				0.939156
				0.936796
				0.929984
				0.925213
				0.923326
				0.915934
				0.91986
				0.909842
				0.919996
				0.907648
				0.923703
				0.909624
				0.930571
				0.915536
				0.939909
				0.924692
				0.950951
				0.936228
				0.962979
				0.949276
				0.975374
				0.963061
				0.98762
				0.976935
				0.999292
				0.990379
				1.01005
				1.00299
				1.01964
				1.01444
				1.02786
				1.02449
				1.03458
				1.03294
				1.03968
				1.03965
				1.0431
				1.0445
				1.04484
				1.04739
				1.04484
				1.04836
				1.0431
				1.04739
				1.03968
				1.0445
				1.03458
				1.03965
				1.02786
				1.03294
				1.01964
				1.02449
				1.01005
				1.01444
				0.999293
				1.00299
				0.987621
				0.990381
				0.975375
				0.976936
				0.962981
				0.963062
				0.950953
				0.949277
				0.93991
				0.936229
				0.930573
				0.924694
				0.923705
				0.915538
				0.919998
				0.909626
				0.919862
				0.90765
				0.923328
				0.909844
				0.929986
				0.915936
				0.939158
				0.925215
				0.950046
				0.936798
				0.961898
				0.949785
				0.974051
				0.963399
				0.985968
				0.977001
				0.997239
				0.990082
				1.00757
				1.00224
				1.01675
				1.01318
				1.02466
				1.02269
				1.03117
				1.03061
				1.03605
				1.03683
				1.03808
				1.04087
				1.0396
				1.0433
				1.03262
				1.03147
				1.03337
				1.02867
				1.03102
				1.02921
				1.02697
				1.02616
				1.02177
				1.02196
				1.01548
				1.01685
				1.00821
				1.01086
				1.00005
				1.00407
				0.991187
				0.996575
				0.981855
				0.988557
				0.972381
				0.980265
				0.963181
				0.972034
				0.954757
				0.964284
				0.947677
				0.957501
				0.942522
				0.952194
				0.939785
				0.948827
				0.939754
				0.947731
				0.94245
				0.949021
				0.947594
				0.952561
				0.954708
				0.958019
				0.963222
				0.964941
				0.972569
				0.972837
				0.982238
				0.981245
				0.991805
				0.989758
				1.00093
				0.998031
				1.00934
				1.00579
				1.01684
				1.01281
				1.02327
				1.01893
				1.02853
				1.02406
				1.03253
				1.0281
				1.0352
				1.03101
				1.03654
				1.03277
				1.03654
				1.03336
				1.0352
				1.03277
				1.03253
				1.03101
				1.02853
				1.0281
				1.02327
				1.02406
				1.01684
				1.01894
				1.00934
				1.01281
				1.00093
				1.00579
				0.991806
				0.998032
				0.982239
				0.989758
				0.97257
				0.981246
				0.963223
				0.972838
				0.954709
				0.964942
				0.947595
				0.95802
				0.942452
				0.952562
				0.939755
				0.949023
				0.939786
				0.947732
				0.942523
				0.948828
				0.947679
				0.952195
				0.954759
				0.957502
				0.963182
				0.964285
				0.972382
				0.972035
				0.981856
				0.980266
				0.991188
				0.988558
				1.00005
				0.996576
				1.00821
				1.00407
				1.01548
				1.01086
				1.02177
				1.01685
				1.02697
				1.02196
				1.03102
				1.02616
				1.03337
				1.02921
				1.03262
				1.02867
				1.02072
				1.0229
				1.02078
				1.02321
				1.01976
				1.02358
				1.01735
				1.02114
				1.01427
				1.01802
				1.01057
				1.01413
				1.00629
				1.00953
				1.0015
				1.0043
				0.996311
				0.998533
				0.990875
				0.992386
				0.985392
				0.986062
				0.980119
				0.979819
				0.975356
				0.973971
				0.971421
				0.968871
				0.968619
				0.964885
				0.967189
				0.962342
				0.967266
				0.961476
				0.968836
				0.962376
				0.971764
				0.964967
				0.975811
				0.969021
				0.980682
				0.974213
				0.986068
				0.980175
				0.991679
				0.986547
				0.997256
				0.99301
				1.00258
				0.999295
				1.00749
				1.00519
				1.01185
				1.01053
				1.01557
				1.0152
				1.0186
				1.0191
				1.02089
				1.02219
				1.02243
				1.02441
				1.0232
				1.02574
				1.0232
				1.02619
				1.02243
				1.02574
				1.02089
				1.02441
				1.0186
				1.02219
				1.01557
				1.0191
				1.01185
				1.0152
				1.00749
				1.01053
				1.00258
				1.00519
				0.997257
				0.999295
				0.99168
				0.993011
				0.986069
				0.986548
				0.980683
				0.980176
				0.975812
				0.974214
				0.971765
				0.969022
				0.968837
				0.964968
				0.967267
				0.962377
				0.96719
				0.961477
				0.96862
				0.962343
				0.971422
				0.964886
				0.975357
				0.968872
				0.98012
				0.973972
				0.985393
				0.97982
				0.990875
				0.986063
				0.996311
				0.992387
				1.0015
				0.998534
				1.00629
				1.0043
				1.01057
				1.00953
				1.01427
				1.01413
				1.01735
				1.01802
				1.01976
				1.02114
				1.02078
				1.02358
				1.02072
				1.02321
				1.01504
				1.01445
				1.01671
				1.01346
				1.01537
				1.01386
				1.01358
				1.01259
				1.01129
				1.01085
				1.00851
				1.00868
				1.00528
				1.00609
				1.00168
				1.00315
				0.997784
				0.999915
				0.993719
				0.996481
				0.989641
				0.992965
				0.98574
				0.989517
				0.982231
				0.986317
				0.979339
				0.983559
				0.977279
				0.981435
				0.976219
				0.980109
				0.976249
				0.979691
				0.977378
				0.980217
				0.979513
				0.981643
				0.982484
				0.983857
				0.986078
				0.986696
				0.990064
				0.989971
				0.994222
				0.993492
				0.998355
				0.997079
				1.0023
				1.00058
				1.00595
				1.00386
				1.00918
				1.00683
				1.01195
				1.00942
				1.01421
				1.01157
				1.01592
				1.01327
				1.01706
				1.01449
				1.01764
				1.01523
				1.01764
				1.01548
				1.01706
				1.01523
				1.01592
				1.01449
				1.01421
				1.01327
				1.01195
				1.01157
				1.00918
				1.00942
				1.00595
				1.00683
				1.00231
				1.00386
				0.998355
				1.00058
				0.994222
				0.99708
				0.990065
				0.993492
				0.986079
				0.989972
				0.982485
				0.986697
				0.979513
				0.983858
				0.977379
				0.981644
				0.97625
				0.980218
				0.976219
				0.979692
				0.97728
				0.98011
				0.97934
				0.981436
				0.982231
				0.98356
				0.985741
				0.986318
				0.989642
				0.989518
				0.993719
				0.992966
				0.997784
				0.996482
				1.00168
				0.999916
				1.00528
				1.00315
				1.00851
				1.00609
				1.01129
				1.00868
				1.01358
				1.01085
				1.01537
				1.01259
				1.01671
				1.01386
				1.01504
				1.01346
				1.00807
				1.00891
				1.00856
				1.0099
				1.00844
				1.01027
				1.00755
				1.0093
				1.00636
				1.0081
				1.00487
				1.00654
				1.00314
				1.00466
				1.00121
				1.00251
				0.999123
				1.00015
				0.996953
				0.997635
				0.994786
				0.995073
				0.992724
				0.99257
				0.990884
				0.990255
				0.989382
				0.988265
				0.988326
				0.986733
				0.987795
				0.985776
				0.987836
				0.98547
				0.988442
				0.985842
				0.98957
				0.986866
				0.991138
				0.988463
				0.993037
				0.990519
				0.99515
				0.992896
				0.997362
				0.995453
				0.999567
				0.99806
				1.00168
				1.0006
				1.00362
				1.00299
				1.00534
				1.00515
				1.00682
				1.00703
				1.00801
				1.0086
				1.00891
				1.00984
				1.00952
				1.01073
				1.00983
				1.01127
				1.00983
				1.01146
				1.00952
				1.01127
				1.00891
				1.01073
				1.00801
				1.00984
				1.00682
				1.0086
				1.00534
				1.00703
				1.00362
				1.00515
				1.00168
				1.00299
				0.999567
				1.0006
				0.997362
				0.99806
				0.99515
				0.995454
				0.993037
				0.992897
				0.991138
				0.99052
				0.989571
				0.988464
				0.988443
				0.986866
				0.987836
				0.985842
				0.987796
				0.985471
				0.988327
				0.985777
				0.989383
				0.986734
				0.990884
				0.988265
				0.992724
				0.990255
				0.994786
				0.992571
				0.996953
				0.995073
				0.999123
				0.997636
				1.00121
				1.00015
				1.00314
				1.00251
				1.00487
				1.00466
				1.00636
				1.00654
				1.00755
				1.0081
				1.00844
				1.0093
				1.00856
				1.01027
				1.00807
				1.0099
				1.00539
				1.00524
				1.00665
				1.005
				1.00618
				1.00542
				1.00554
				1.00504
				1.00467
				1.00439
				1.0036
				1.00355
				1.00235
				1.00256
				1.00096
				1.00144
				0.999455
				1.00021
				0.997899
				0.998908
				0.996347
				0.997589
				0.994874
				0.996306
				0.993561
				0.995127
				0.992491
				0.99412
				0.991738
				0.993351
				0.99136
				0.992875
				0.991385
				0.992731
				0.991818
				0.99293
				0.992622
				0.993459
				0.993741
				0.994279
				0.995098
				0.995334
				0.99661
				0.996555
				0.998193
				0.99787
				0.999771
				0.999211
				1.00128
				1.00052
				1.00267
				1.00175
				1.00391
				1.00286
				1.00497
				1.00383
				1.00583
				1.00463
				1.00648
				1.00527
				1.00691
				1.00572
				1.00713
				1.006
				1.00713
				1.00609
				1.00691
				1.006
				1.00648
				1.00572
				1.00583
				1.00527
				1.00497
				1.00463
				1.00391
				1.00383
				1.00267
				1.00286
				1.00128
				1.00175
				0.999771
				1.00052
				0.998193
				0.999212
				0.99661
				0.99787
				0.995099
				0.996555
				0.993741
				0.995335
				0.992623
				0.99428
				0.991818
				0.993459
				0.991386
				0.99293
				0.99136
				0.992731
				0.991738
				0.992876
				0.992491
				0.993351
				0.993561
				0.99412
				0.994874
				0.995127
				0.996347
				0.996307
				0.997899
				0.997589
				0.999456
				0.998909
				1.00096
				1.00021
				1.00235
				1.00144
				1.0036
				1.00256
				1.00467
				1.00355
				1.00554
				1.00439
				1.00618
				1.00504
				1.00665
				1.00542
				1.00539
				1.005
				1.00241
				1.00268
				1.00305
				1.00348
				1.00311
				1.00383
				1.00279
				1.00349
				1.00236
				1.00306
				1.00183
				1.00249
				1.00121
				1.0018
				1.00052
				1.00102
				0.99977
				1.00016
				0.998993
				0.999251
				0.998218
				0.998322
				0.997484
				0.997416
				0.996833
				0.996581
				0.996304
				0.995867
				0.995934
				0.995322
				0.99575
				0.994986
				0.99577
				0.994885
				0.995989
				0.995028
				0.996395
				0.995403
				0.996959
				0.995984
				0.997643
				0.99673
				0.998403
				0.997594
				0.999198
				0.998526
				0.99999
				0.999478
				1.00075
				1.00041
				1.00145
				1.00128
				1.00207
				1.00207
				1.0026
				1.00276
				1.00303
				1.00333
				1.00335
				1.00378
				1.00357
				1.00411
				1.00368
				1.00431
				1.00368
				1.00437
				1.00357
				1.00431
				1.00335
				1.00411
				1.00303
				1.00378
				1.0026
				1.00333
				1.00207
				1.00276
				1.00145
				1.00207
				1.00075
				1.00128
				0.99999
				1.00041
				0.999198
				0.999478
				0.998403
				0.998526
				0.997643
				0.997594
				0.996959
				0.99673
				0.996396
				0.995984
				0.99599
				0.995403
				0.99577
				0.995028
				0.995751
				0.994885
				0.995934
				0.994986
				0.996304
				0.995322
				0.996833
				0.995867
				0.997485
				0.996581
				0.998218
				0.997416
				0.998993
				0.998322
				0.99977
				0.999251
				1.00052
				1.00016
				1.00121
				1.00102
				1.00183
				1.0018
				1.00236
				1.00249
				1.00279
				1.00306
				1.00311
				1.00349
				1.00305
				1.00383
				1.00241
				1.00348
				1.00143
				1.00128
				1.00234
				1.0015
				1.00219
				1.00186
				1.00195
				1.00173
				1.00165
				1.00151
				1.00128
				1.00123
				1.00085
				1.0009
				1.00037
				1.00052
				0.999846
				1.0001
				0.999301
				0.999651
				0.998757
				0.999193
				0.998241
				0.998748
				0.997783
				0.998339
				0.997411
				0.997992
				0.997153
				0.997728
				0.997027
				0.997567
				0.997044
				0.997522
				0.997202
				0.997596
				0.99749
				0.997785
				0.997888
				0.998075
				0.998369
				0.998446
				0.998904
				0.998875
				0.999465
				0.999336
				1.00002
				0.999806
				1.00056
				1.00027
				1.00105
				1.0007
				1.00149
				1.00109
				1.00187
				1.00143
				1.00217
				1.00171
				1.0024
				1.00193
				1.00255
				1.00209
				1.00263
				1.00219
				1.00263
				1.00222
				1.00255
				1.00219
				1.0024
				1.00209
				1.00217
				1.00193
				1.00187
				1.00171
				1.00149
				1.00143
				1.00105
				1.00109
				1.00056
				1.0007
				1.00002
				1.00027
				0.999465
				0.999806
				0.998905
				0.999336
				0.998369
				0.998875
				0.997888
				0.998446
				0.997491
				0.998075
				0.997203
				0.997785
				0.997044
				0.997596
				0.997027
				0.997522
				0.997153
				0.997567
				0.997411
				0.997728
				0.997783
				0.997992
				0.998242
				0.99834
				0.998757
				0.998748
				0.999301
				0.999194
				0.999846
				0.999651
				1.00037
				1.0001
				1.00085
				1.00052
				1.00128
				1.0009
				1.00165
				1.00123
				1.00195
				1.00151
				1.00219
				1.00173
				1.00234
				1.00186
				1.00143
				1.0015
				1.00029
				1.00037
				1.00099
				1.0011
				1.001
				1.00128
				1.0009
				1.00115
				1.00077
				1.00101
				1.0006
				1.00083
				1.0004
				1.0006
				1.00017
				1.00034
				0.999921
				1.00005
				0.999659
				0.999744
				0.999398
				0.999429
				0.999152
				0.999122
				0.998934
				0.99884
				0.998758
				0.998601
				0.998637
				0.99842
				0.99858
				0.998311
				0.998592
				0.998283
				0.998673
				0.998339
				0.998816
				0.998473
				0.999012
				0.998678
				0.999248
				0.998939
				0.99951
				0.99924
				0.999784
				0.999563
				1.00006
				0.999893
				1.00032
				1.00022
				1.00056
				1.00052
				1.00077
				1.00079
				1.00096
				1.00103
				1.0011
				1.00123
				1.00121
				1.00138
				1.00129
				1.00149
				1.00133
				1.00156
				1.00133
				1.00158
				1.00129
				1.00156
				1.00121
				1.00149
				1.0011
				1.00138
				1.00096
				1.00123
				1.00077
				1.00103
				1.00056
				1.00079
				1.00032
				1.00052
				1.00006
				1.00022
				0.999784
				0.999893
				0.99951
				0.999563
				0.999248
				0.99924
				0.999012
				0.998939
				0.998816
				0.998678
				0.998673
				0.998473
				0.998593
				0.998339
				0.99858
				0.998283
				0.998637
				0.998311
				0.998758
				0.99842
				0.998934
				0.998601
				0.999152
				0.99884
				0.999399
				0.999122
				0.999659
				0.999429
				0.999921
				0.999744
				1.00017
				1.00005
				1.0004
				1.00034
				1.0006
				1.0006
				1.00077
				1.00083
				1.0009
				1.00101
				1.001
				1.00115
				1.00099
				1.00128
				1.00029
				1.0011
				1.00013
				1.00008
				1.0008
				1.00037
				1.00069
				1.00058
				1.00063
				1.00054
				1.00054
				1.00048
				1.00042
				1.0004
				1.00028
				1.00029
				1.00012
				1.00016
				0.999942
				1.00003
				0.999762
				0.999878
				0.999582
				0.999729
				0.999414
				0.999585
				0.999265
				0.999453
				0.999146
				0.999342
				0.999065
				0.999259
				0.999029
				0.999211
				0.99904
				0.9992
				0.999098
				0.999229
				0.999198
				0.999295
				0.999335
				0.999395
				0.9995
				0.999521
				0.999682
				0.999666
				0.999873
				0.999823
				1.00006
				0.999982
				1.00024
				1.00014
				1.00041
				1.00028
				1.00056
				1.00042
				1.00069
				1.00053
				1.00079
				1.00063
				1.00087
				1.0007
				1.00092
				1.00076
				1.00095
				1.00079
				1.00095
				1.0008
				1.00092
				1.00079
				1.00087
				1.00076
				1.00079
				1.0007
				1.00069
				1.00063
				1.00056
				1.00053
				1.00041
				1.00042
				1.00024
				1.00028
				1.00006
				1.00014
				0.999873
				0.999982
				0.999682
				0.999823
				0.9995
				0.999667
				0.999335
				0.999521
				0.999198
				0.999395
				0.999098
				0.999296
				0.99904
				0.999229
				0.999029
				0.9992
				0.999065
				0.999211
				0.999146
				0.999259
				0.999265
				0.999342
				0.999414
				0.999453
				0.999582
				0.999585
				0.999762
				0.999729
				0.999942
				0.999878
				1.00012
				1.00003
				1.00028
				1.00016
				1.00042
				1.00029
				1.00054
				1.0004
				1.00063
				1.00048
				1.00069
				1.00054
				1.0008
				1.00058
				1.00013
				1.00037
				0.999915
				0.99972
				1.00024
				1.00029
				1.00029
				1.00039
				1.00027
				1.00034
				1.00023
				1.00031
				1.00017
				1.00025
				1.00011
				1.00017
				1.00003
				1.00009
				0.999952
				0.999992
				0.99987
				0.999894
				0.999788
				0.999795
				0.999711
				0.999698
				0.999644
				0.999611
				0.999591
				0.999537
				0.999556
				0.999483
				0.999542
				0.999452
				0.999551
				0.999448
				0.999584
				0.999471
				0.999637
				0.999521
				0.999708
				0.999594
				0.999792
				0.999686
				0.999884
				0.999791
				0.99998
				0.999904
				1.00007
				1.00002
				1.00016
				1.00013
				1.00025
				1.00023
				1.00032
				1.00032
				1.00038
				1.00041
				1.00043
				1.00047
				1.00047
				1.00052
				1.00049
				1.00056
				1.00051
				1.00058
				1.00051
				1.00059
				1.00049
				1.00058
				1.00047
				1.00056
				1.00043
				1.00052
				1.00038
				1.00047
				1.00032
				1.00041
				1.00025
				1.00032
				1.00016
				1.00023
				1.00007
				1.00013
				0.99998
				1.00002
				0.999884
				0.999904
				0.999792
				0.999791
				0.999708
				0.999686
				0.999637
				0.999594
				0.999584
				0.999521
				0.999551
				0.999471
				0.999542
				0.999448
				0.999556
				0.999452
				0.999591
				0.999483
				0.999644
				0.999537
				0.999712
				0.999611
				0.999788
				0.999698
				0.99987
				0.999795
				0.999952
				0.999894
				1.00003
				0.999992
				1.00011
				1.00009
				1.00017
				1.00017
				1.00023
				1.00025
				1.00027
				1.00031
				1.00029
				1.00034
				1.00024
				1.00039
				0.999915
				1.00029
				0.999789
				0.999804
				1.00021
				0.999983
				1.00019
				1.00014
				1.00018
				1.00015
				1.00016
				1.00013
				1.00012
				1.00011
				1.00008
				1.00008
				1.00003
				1.00004
				0.999972
				0.999997
				0.999916
				0.999954
				0.999861
				0.99991
				0.99981
				0.999868
				0.999765
				0.99983
				0.999731
				0.999799
				0.99971
				0.999777
				0.999703
				0.999765
				0.999711
				0.999765
				0.999734
				0.999777
				0.99977
				0.9998
				0.999817
				0.999833
				0.999872
				0.999875
				0.999933
				0.999923
				0.999997
				0.999975
				1.00006
				1.00003
				1.00012
				1.00008
				1.00018
				1.00013
				1.00023
				1.00018
				1.00027
				1.00022
				1.00031
				1.00025
				1.00034
				1.00028
				1.00036
				1.0003
				1.00037
				1.00031
				1.00037
				1.00031
				1.00036
				1.00031
				1.00034
				1.0003
				1.00031
				1.00028
				1.00027
				1.00025
				1.00023
				1.00022
				1.00018
				1.00018
				1.00012
				1.00013
				1.00006
				1.00008
				0.999997
				1.00003
				0.999933
				0.999975
				0.999872
				0.999923
				0.999817
				0.999875
				0.99977
				0.999833
				0.999734
				0.9998
				0.999712
				0.999777
				0.999703
				0.999766
				0.99971
				0.999766
				0.999731
				0.999777
				0.999766
				0.999799
				0.99981
				0.999831
				0.999861
				0.999868
				0.999916
				0.99991
				0.999972
				0.999954
				1.00003
				0.999997
				1.00008
				1.00004
				1.00012
				1.00008
				1.00016
				1.00011
				1.00018
				1.00013
				1.00019
				1.00015
				1.00021
				1.00014
				0.999789
				0.999983
				0.999692
				0.999724
				1.00006
				1.00008
				1.00009
				1.00008
				1.00008
				1.00008
				1.00006
				1.00006
				1.00004
				1.00005
				1.00001
				1.00002
				0.999981
				0.999995
				0.999947
				0.999963
				0.999912
				0.999929
				0.999879
				0.999895
				0.999849
				0.999862
				0.999825
				0.999833
				0.999807
				0.999809
				0.999799
				0.999793
				0.9998
				0.999786
				0.999813
				0.999788
				0.999838
				0.999804
				0.999874
				0.999832
				0.999918
				0.999872
				0.999967
				0.99992
				1.00002
				0.999972
				1.00007
				1.00003
				1.00012
				1.00008
				1.00016
				1.00013
				1.0002
				1.00018
				1.00023
				1.00022
				1.00026
				1.00025
				1.00028
				1.00028
				1.00029
				1.0003
				1.00031
				1.00031
				1.00031
				1.00032
				1.00031
				1.00032
				1.00031
				1.00032
				1.00029
				1.00031
				1.00028
				1.0003
				1.00026
				1.00028
				1.00023
				1.00025
				1.0002
				1.00022
				1.00016
				1.00018
				1.00012
				1.00013
				1.00007
				1.00008
				1.00002
				1.00003
				0.999967
				0.999972
				0.999918
				0.99992
				0.999874
				0.999872
				0.999838
				0.999833
				0.999813
				0.999804
				0.9998
				0.999788
				0.999799
				0.999786
				0.999807
				0.999793
				0.999825
				0.999809
				0.999849
				0.999833
				0.999879
				0.999862
				0.999913
				0.999895
				0.999947
				0.99993
				0.999981
				0.999963
				1.00001
				0.999995
				1.00004
				1.00002
				1.00006
				1.00005
				1.00008
				1.00006
				1.00009
				1.00008
				1.00006
				1.00008
				0.999692
				1.00008
			</DataArray>
			<DataArray type="Float64" Name="mach-number" Format="ascii">
				0.00810295
				0.00704986
				0.055947
				0.0437868
				0.114382
				0.0955725
				0.182502
				0.1566
				0.253755
				0.222896
				0.32546
				0.290886
				0.396387
				0.358676
				0.465911
				0.425333
				0.533631
				0.490287
				0.599128
				0.553084
				0.661808
				0.613155
				0.720797
				0.669707
				0.774561
				0.72155
				0.821063
				0.766975
				0.856653
				0.803067
				0.874286
				0.831529
				0.873266
				0.839773
				0.854273
				0.831645
				0.824051
				0.805008
				0.780787
				0.769508
				0.729693
				0.725474
				0.673379
				0.675459
				0.61356
				0.621427
				0.551666
				0.564723
				0.488499
				0.505727
				0.424102
				0.444761
				0.358972
				0.382708
				0.293643
				0.320326
				0.228352
				0.257932
				0.163351
				0.195916
				0.0993606
				0.135307
				0.0405629
				0.0796749
				0.0405602
				0.048994
				0.0993574
				0.0796723
				0.163348
				0.135304
				0.228348
				0.195913
				0.29364
				0.257928
				0.358968
				0.320323
				0.424098
				0.382704
				0.488495
				0.444757
				0.551662
				0.505723
				0.613555
				0.564718
				0.673374
				0.621422
				0.729687
				0.675453
				0.78078
				0.725468
				0.824044
				0.769501
				0.854264
				0.805001
				0.873258
				0.831637
				0.874277
				0.839765
				0.856644
				0.831521
				0.821056
				0.80306
				0.774553
				0.766968
				0.72079
				0.721544
				0.661802
				0.669701
				0.599122
				0.61315
				0.533626
				0.553079
				0.465906
				0.490282
				0.396382
				0.425329
				0.325456
				0.358672
				0.25375
				0.290882
				0.182498
				0.222892
				0.114378
				0.156596
				0.0559436
				0.0955687
				0.00810184
				0.0437839
				0.0716824
				0.0212143
				0.127866
				0.0836705
				0.178105
				0.134993
				0.226654
				0.188237
				0.276098
				0.242312
				0.326509
				0.29756
				0.377551
				0.353353
				0.428687
				0.409047
				0.479327
				0.464092
				0.528805
				0.517957
				0.576321
				0.57002
				0.620823
				0.61946
				0.660839
				0.665092
				0.694584
				0.705303
				0.719102
				0.737303
				0.732452
				0.75969
				0.732063
				0.767993
				0.718441
				0.761314
				0.693403
				0.739979
				0.660042
				0.708633
				0.620417
				0.66951
				0.576375
				0.624694
				0.529282
				0.575941
				0.480138
				0.524538
				0.429744
				0.471342
				0.378821
				0.41706
				0.327877
				0.362218
				0.277533
				0.307275
				0.228821
				0.252882
				0.18352
				0.200113
				0.145035
				0.151082
				0.121385
				0.110721
				0.121384
				0.0931652
				0.145033
				0.110719
				0.183518
				0.15108
				0.228818
				0.20011
				0.277531
				0.252879
				0.327874
				0.307273
				0.378817
				0.362214
				0.429741
				0.417056
				0.480134
				0.471338
				0.529278
				0.524533
				0.576371
				0.575937
				0.620412
				0.624689
				0.660036
				0.669504
				0.693398
				0.708627
				0.718434
				0.739972
				0.732057
				0.761308
				0.732446
				0.767986
				0.719096
				0.759684
				0.694578
				0.737297
				0.660833
				0.705297
				0.620818
				0.665086
				0.576316
				0.619455
				0.528801
				0.570015
				0.479323
				0.517952
				0.428683
				0.464088
				0.377547
				0.409043
				0.326506
				0.353349
				0.276095
				0.297557
				0.226652
				0.242309
				0.178102
				0.188234
				0.127863
				0.13499
				0.0716785
				0.0836668
				0.111636
				0.11733
				0.165822
				0.161663
				0.208082
				0.204454
				0.24644
				0.23971
				0.284993
				0.273125
				0.324931
				0.307849
				0.366357
				0.344465
				0.408814
				0.382689
				0.451599
				0.421854
				0.49388
				0.461135
				0.534731
				0.499612
				0.573073
				0.536261
				0.607551
				0.569887
				0.636499
				0.599014
				0.657865
				0.621907
				0.669423
				0.636785
				0.669641
				0.641814
				0.658759
				0.636439
				0.638131
				0.62156
				0.609736
				0.598703
				0.575564
				0.569645
				0.537281
				0.536088
				0.496181
				0.499378
				0.45328
				0.46058
				0.409424
				0.420579
				0.36535
				0.380191
				0.32178
				0.340178
				0.279601
				0.301393
				0.240051
				0.26492
				0.205019
				0.232245
				0.177351
				0.205469
				0.161972
				0.187418
				0.161971
				0.180982
				0.17735
				0.187417
				0.205017
				0.205467
				0.240049
				0.232244