<VTKFile type="UnstructuredGrid" version="0.1" byte_order="LittleEndian">
<UnstructuredGrid>
	<Piece NumberOfPoints="80" NumberOfCells="128">
		<CellData Scalars="density" Vectors="velocity">
			<DataArray type="Float64" Name="density" Format="ascii">
				0.953585
				0.944989
				0.943293
				0.962167
				0.904891
				0.949581
				0.882602
				0.929342
				0.900902
				0.925862
				0.970106
				0.958949
				1.028
				1.00574
				1.05072
				1.03985
				1.05072
				1.04231
				1.028
				1.03985
				0.970106
				1.00574
				0.900902
				0.958949
				0.882602
				0.925862
				0.904891
				0.929342
				0.943293
				0.949581
				0.953585
				0.962167
				0.981719
				0.961452
				0.991339
				0.979711
				0.987656
				0.980549
				0.984555
				0.975729
				0.988887
				0.973648
				1.00002
				0.988109
				1.01148
				1.0042
				1.01752
				1.01757
				1.01752
				1.02226
				1.01148
				1.01757
				1.00002
				1.0042
				0.988887
				0.988109
				0.984555
				0.973648
				0.987656
				0.975729
				0.991339
				0.980549
				0.981719
				0.979711
				0.989621
				0.993786
				0.996927
				0.999083
				0.995801
				0.997798
				0.994349
				0.997636
				0.996932
				0.997471
				1.00054
				0.998916
				1.0037
				1.00183
				1.0051
				1.00327
				1.0051
				1.00416
				1.0037
				1.00327
				1.00054
				1.00183
				0.996932
				0.998916
				0.994349
				0.997471
				0.995801
				0.997636
				0.996927
				0.997798
				0.989621
				0.999083
				0.993502
				0.984601
				0.998843
				0.999814
				0.999356
				0.998138
				0.999764
				0.998553
				1.0005
				0.999237
				1.00134
				1.00044
				1.00197
				1.00169
				1.00227
				1.0024
				1.00227
				1.0027
				1.00197
				1.0024
				1.00134
				1.00169
				1.0005
				1.00044
				0.999764
				0.999237
				0.999356
				0.998553
				0.998843
				0.998138
				0.993502
				0.999814
			</DataArray>
			<DataArray type="Float64" Name="mach-number" Format="ascii">
				0.0298477
				0.014718
				0.256039
				0.24695
				0.458123
				0.384559
				0.567665
				0.508269
				0.562193
				0.553558
				0.449042
				0.497103
				0.287939
				0.384924
				0.114851
				0.269384
				0.114851
				0.170907
				0.287939
				0.269384
				0.449041
				0.384924
				0.562193
				0.497103
				0.567665
				0.553558
				0.458123
				0.508269
				0.256038
				0.384559
				0.0298472
				0.24695
				0.289728
				0.0831194
				0.366684
				0.31349
				0.401838
				0.379204
				0.419416
				0.421275
				0.415282
				0.435103
				0.389019
				0.409965
				0.358501
				0.361752
				0.339139
				0.310139
				0.339139
				0.24811
				0.358501
				0.310139
				0.389019
				0.361752
				0.415282
				0.409965
				0.419416
				0.435103
				0.401838
				0.421275
				0.366684
				0.379204
				0.289728
				0.31349
				0.306269
				0.3013
				0.369506
				0.372917
				0.384529
				0.382107
				0.391311
				0.38684
				0.386995
				0.386926
				0.377909
				0.38243
				0.366871
				0.375988
				0.357371
				0.372034
				0.357371
				0.370089
				0.366871
				0.372034
				0.377909
				0.375988
				0.386995
				0.38243
				0.391311
				0.386926
				0.384529
				0.38684
				0.369506
				0.382107
				0.306268
				0.372917
				0.366175
				0.316419
				0.383319
				0.38216
				0.384208
				0.385601
				0.383148
				0.385575
				0.381242
				0.383618
				0.378963
				0.380368
				0.377269
				0.377101
				0.37643
				0.375146
				0.37643
				0.373953
				0.377269
				0.375146
				0.378963
				0.377101
				0.381242
				0.380368
				0.383148
				0.383618
				0.384208
				0.385575
				0.383319
				0.385601
				0.366175
				0.38216
			</DataArray>
			<DataArray type="Float64" Name="pressure" Format="ascii">
				4.86173
				4.80023
				4.73096
				4.86354
				4.3965
				4.70817
				4.20756
				4.52126
				4.30183
				4.4818
				4.75653
				4.69999
				5.17091
				5.01692
				5.34019
				5.245
				5.34019
				5.26988
				5.17091
				5.245
				4.75653
				5.01692
				4.30183
				4.69999
				4.20756
				4.4818
				4.3965
				4.52126
				4.73096
				4.70817
				4.86172
				4.86354
				4.91507
				4.82419
				4.91727
				4.89269
				4.87168
				4.84647
				4.84192
				4.79353
				4.872
				4.77312
				4.94792
				4.86569
				5.02626
				4.97775
				5.065
				5.07209
				5.065
				5.12444
				5.02626
				5.07209
				4.94792
				4.97775
				4.872
				4.86569
				4.84192
				4.77312
				4.87168
				4.79353
				4.91727
				4.84647
				4.91507
				4.89268
				4.96232
				4.96081
				4.94321
				4.96397
				4.92549
				4.93727
				4.91208
				4.93267
				4.9293
				4.92626
				4.94931
				4.93775
				4.97245
				4.95942
				4.98548
				4.97141
				4.98548
				4.97709
				4.97245
				4.97141
				4.94931
				4.95942
				4.9293
				4.93775
				4.91208
				4.92626
				4.92549
				4.93267
				4.94321
				4.93727
				4.96232
				4.96397
				4.92732
				4.92556
				4.93967
				4.9307
				4.94172
				4.9343
				4.94487
				4.93657
				4.95009
				4.94111
				4.95587
				4.94954
				4.96021
				4.95825
				4.96225
				4.96324
				4.96225
				4.96501
				4.96021
				4.96324
				4.95587
				4.95825
				4.95009
				4.94954
				4.94487
				4.94111
				4.94172
				4.93657
				4.93967
				4.9343
				4.92732
				4.9307
			</DataArray>
			<DataArray type="Float64" Name="velocity" NumberOfComponents="3" Format="ascii">
				0.0760346 0.0240337 0.0 
				-0.0392492 -9.74986e-07 0.0 
				0.600865 -0.315057 0.0 
				0.655224 -0.0474096 0.0 
				1.12338 -0.406935 0.0 
				0.983337 -0.2441 0.0 
				1.46373 -0.0905482 0.0 
				1.31612 -0.165421 0.0 
				1.41778 0.320608 0.0 
				1.43837 0.0879661 0.0 
				1.03856 0.552726 0.0 
				1.25383 0.351436 0.0 
				0.596934 0.476988 0.0 
				0.934063 0.402822 0.0 
				0.259065 0.16353 0.0 
				0.675524 0.236881 0.0 
				0.259065 -0.16353 0.0 
				0.454702 -1.69658e-08 0.0 
				0.596934 -0.476988 0.0 
				0.675524 -0.236881 0.0 
				1.03856 -0.552726 0.0 
				0.934063 -0.402822 0.0 
				1.41778 -0.320608 0.0 
				1.25383 -0.351436 0.0 
				1.46373 0.0905482 0.0 
				1.43837 -0.0879661 0.0 
				1.12338 0.406935 0.0 
				1.31612 0.165421 0.0 
				0.600865 0.315057 0.0 
				0.983337 0.2441 0.0 
				0.0760328 -0.0240352 0.0 
				0.655224 0.0474092 0.0 
				0.761548 -0.0917435 0.0 
				0.2203 -2.94497e-07 0.0 
				0.963332 -0.0755295 0.0 
				0.822672 -0.101574 0.0 
				1.05485 -0.0485142 0.0 
				0.990813 -0.115362 0.0 
				1.10047 0.0107416 0.0 
				1.1037 -0.0498301 0.0 
				1.08708 0.0881998 0.0 
				1.13851 0.0556138 0.0 
				1.01591 0.127365 0.0 
				1.06326 0.167784 0.0 
				0.939573 0.106395 0.0 
				0.933937 0.189516 0.0 
				0.893851 0.050618 0.0 
				0.808936 0.129778 0.0 
				0.893851 -0.050618 0.0 
				0.657282 -1.72799e-10 0.0 
				0.939573 -0.106395 0.0 
				0.808936 -0.129778 0.0 
				1.01591 -0.127365 0.0 
				0.933937 -0.189516 0.0 
				1.08708 -0.0881998 0.0 
				1.06326 -0.167784 0.0 
				1.10047 -0.0107416 0.0 
				1.13851 -0.0556138 0.0 
				1.05485 0.0485142 0.0 
				1.1037 0.04983 0.0 
				0.963332 0.0755295 0.0 
				0.990813 0.115362 0.0 
				0.761547 0.0917437 0.0 
				0.822672 0.101574 0.0 
				0.811467 -0.00332835 0.0 
				0.796512 -1.41418e-07 0.0 
				0.973508 -0.00905678 0.0 
				0.983503 0.00781686 0.0 
				1.01188 -0.00351408 0.0 
				1.0057 0.00275564 0.0 
				1.02896 0.0158124 0.0 
				1.0177 0.0118727 0.0 
				1.01742 0.0397188 0.0 
				1.01717 0.0226435 0.0 
				0.993324 0.0483743 0.0 
				1.00556 0.0311554 0.0 
				0.96545 0.0376824 0.0 
				0.989424 0.0280091 0.0 
				0.941593 0.0167263 0.0 
				0.979769 0.0151605 0.0 
				0.941593 -0.0167263 0.0 
				0.974893 -1.81513e-09 0.0 
				0.96545 -0.0376824 0.0 
				0.979769 -0.0151605 0.0 
				0.993324 -0.0483743 0.0 
				0.989424 -0.0280091 0.0 
				1.01742 -0.0397188 0.0 
				1.00556 -0.0311554 0.0 
				1.02896 -0.0158124 0.0 
				1.01717 -0.0226435 0.0 
				1.01188 0.00351408 0.0 
				1.0177 -0.0118727 0.0 
				0.973508 0.0090568 0.0 
				1.0057 -0.00275563 0.0 
				0.811466 0.0033281 0.0 
				0.983503 -0.00781686 0.0 
				0.964818 -0.0110898 0.0 
				0.837383 1.17721e-08 0.0 
				1.00859 -0.00716711 0.0 
				1.00411 -0.0100146 0.0 
				1.0109 -0.000984398 0.0 
				1.01442 -0.00196596 0.0 
				1.00822 0.00401744 0.0 
				1.01436 0.00542884 0.0 
				1.00334 0.00768308 0.0 
				1.00929 0.0111412 0.0 
				0.997506 0.00804268 0.0 
				1.00095 0.0141541 0.0 
				0.993185 0.00554713 0.0 
				0.992629 0.0120311 0.0 
				0.991049 0.00199733 0.0 
				0.987679 0.00655396 0.0 
				0.991049 -0.00199733 0.0 
				0.98459 2.03248e-11 0.0 
				0.993185 -0.00554713 0.0 
				0.987679 -0.00655396 0.0 
				0.997506 -0.00804268 0.0 
				0.992629 -0.0120311 0.0 
				1.00334 -0.00768308 0.0 
				1.00095 -0.0141541 0.0 
				1.00822 -0.00401744 0.0 
				1.00929 -0.0111412 0.0 
				1.0109 0.000984394 0.0 
				1.01436 -0.00542884 0.0 
				1.00859 0.00716711 0.0 
				1.01442 0.00196596 0.0 
				0.964818 0.0110898 0.0 
				1.00411 0.0100146 0.0 
			</DataArray>
		</CellData>
		<Points>
		<DataArray type="Float64" NumberOfComponents="3" Format="ascii">
			0.5 0 0.0 
			0.46194 0.191342 0.0 
			0.353553 0.353553 0.0 
			0.191342 0.46194 0.0 
			-2.18557e-08 0.5 0.0 
			-0.191342 0.46194 0.0 
			-0.353553 0.353553 0.0 
			-0.46194 0.191342 0.0 
			-0.5 -4.37114e-08 0.0 
			-0.46194 -0.191342 0.0 
			-0.353553 -0.353553 0.0 
			-0.191342 -0.46194 0.0 
			6.55671e-08 -0.5 0.0 
			0.191342 -0.46194 0.0 
			0.353553 -0.353553 0.0 
			0.46194 -0.191342 0.0 
			0.884503 0.175939 0.0 
			0.749846 0.501031 0.0 
			0.501031 0.749846 0.0 
			0.175939 0.884503 0.0 
			-0.175939 0.884503 0.0 
			-0.501031 0.749846 0.0 
			-0.749846 0.501031 0.0 
			-0.884503 0.175939 0.0 
			-0.884503 -0.175939 0.0 
			-0.749846 -0.501031 0.0 
			-0.501031 -0.749846 0.0 
			-0.175939 -0.884503 0.0 
			0.175939 -0.884503 0.0 
			0.501031 -0.749846 0.0 
			0.749846 -0.501031 0.0 
			0.884503 -0.175938 0.0 
			2.20148 0 0.0 
			2.0339 0.842468 0.0 
			1.55668 1.55668 0.0 
			0.842468 2.0339 0.0 
			-9.62295e-08 2.20148 0.0 
			-0.842468 2.0339 0.0 
			-1.55668 1.55668 0.0 
			-2.0339 0.842468 0.0 
			-2.20148 -1.92459e-07 0.0 
			-2.0339 -0.842468 0.0 
			-1.55668 -1.55668 0.0 
			-0.842468 -2.0339 0.0 
			2.88689e-07 -2.20148 0.0 
			0.842468 -2.0339 0.0 
			1.55668 -1.55668 0.0 
			2.0339 -0.842468 0.0 
			6.28184 1.24954 0.0 
			5.32549 3.55838 0.0 
			3.55838 5.32549 0.0 
			1.24954 6.28184 0.0 
			-1.24954 6.28184 0.0 
			-3.55838 5.32549 0.0 
			-5.32549 3.55838 0.0 
			-6.28184 1.24954 0.0 
			-6.28184 -1.24954 0.0 
			-5.32549 -3.55838 0.0 
			-3.55838 -5.32549 0.0 
			-1.24954 -6.28184 0.0 
			1.24954 -6.28184 0.0 
			3.55838 -5.32549 0.0 
			5.32549 -3.55838 0.0 
			6.28184 -1.24953 0.0 
			20.0001 0 0.0 
			18.4777 7.6537 0.0 
			14.1422 14.1422 0.0 
			7.6537 18.4777 0.0 
			-8.74231e-07 20.0001 0.0 
			-7.6537 18.4777 0.0 
			-14.1422 14.1422 0.0 
			-18.4777 7.65369 0.0 
			-20.0001 -1.74846e-06 0.0 
			-18.4777 -7.6537 0.0 
			-14.1422 -14.1422 0.0 
			-7.65369 -18.4777 0.0 
			2.62269e-06 -20.0001 0.0 
			7.6537 -18.4777 0.0 
			14.1422 -14.1422 0.0 
			18.4777 -7.65369 0.0 
		</DataArray>
		</Points>
		<Cells>
			<DataArray type="UInt32" Name="connectivity" Format="ascii">
				0 16 1 
				0 31 16 
				1 17 2 
				1 16 17 
				2 18 3 
				2 17 18 
				3 19 4 
				3 18 19 
				4 20 5 
				4 19 20 
				5 21 6 
				5 20 21 
				6 22 7 
				6 21 22 
				7 23 8 
				7 22 23 
				8 24 9 
				8 23 24 
				9 25 10 
				9 24 25 
				10 26 11 
				10 25 26 
				11 27 12 
				11 26 27 
				12 28 13 
				12 27 28 
				13 29 14 
				13 28 29 
				14 30 15 
				14 29 30 
				15 31 0 
				15 30 31 
				16 32 33 
				16 31 32 
				17 33 34 
				17 16 33 
				18 34 35 
				18 17 34 
				19 35 36 
				19 18 35 
				20 36 37 
				20 19 36 
				21 37 38 
				21 20 37 
				22 38 39 
				22 21 38 
				23 39 40 
				23 22 39 
				24 40 41 
				24 23 40 
				25 41 42 
				25 24 41 
				26 42 43 
				26 25 42 
				27 43 44 
				27 26 43 
				28 44 45 
				28 27 44 
				29 45 46 
				29 28 45 
				30 46 47 
				30 29 46 
				31 47 32 
				31 30 47 
				32 48 33 
				32 63 48 
				33 49 34 
				33 48 49 
				34 50 35 
				34 49 50 
				35 51 36 
				35 50 51 
				36 52 37 
				36 51 52 
				37 53 38 
				37 52 53 
				38 54 39 
				38 53 54 
				39 55 40 
				39 54 55 
				40 56 41 
				40 55 56 
				41 57 42 
				41 56 57 
				42 58 43 
				42 57 58 
				43 59 44 
				43 58 59 
				44 60 45 
				44 59 60 
				45 61 46 
				45 60 61 
				46 62 47 
				46 61 62 
				47 63 32 
				47 62 63 
				48 64 65 
				48 63 64 
				49 65 66 
				49 48 65 
				50 66 67 
				50 49 66 
				51 67 68 
				51 50 67 
				52 68 69 
				52 51 68 
				53 69 70 
				53 52 69 
				54 70 71 
				54 53 70 
				55 71 72 
				55 54 71 
				56 72 73 
				56 55 72 
				57 73 74 
				57 56 73 
				58 74 75 
				58 57 74 
				59 75 76 
				59 58 75 
				60 76 77 
				60 59 76 
				61 77 78 
				61 60 77 
				62 78 79 
				62 61 78 
				63 79 64 
				63 62 79 
			</DataArray>
			<DataArray type="UInt32" Name="offsets" Format="ascii">
				3
				6
				9
				12
				15
				18
				21
				24
				27
				30
				33
				36
				39
				42
				45
				48
				51
				54
				57
				60
				63
				66
				69
				72
				75
				78
				81
				84
				87
				90
				93
				96
				99
				102
				105
				108
				111
				114
				117
				120
				123
				126
				129
				132
				135
				138
				141
				144
				147
				150
				153
				156
				159
				162
				165
				168
				171
				174
				177
				180
				183
				186
				189
				192
				195
				198
				201
				204
				207
				210
				213
				216
				219
				222
				225
				228
				231
				234
				237
				240
				243
				246
				249
				252
				255
				258
				261
				264
				267
				270
				273
				276
				279
				282
				285
				288
				291
				294
				297
				300
				303
				306
				309
				312
				315
				318
				321
				324
				327
				330
				333
				336
				339
				342
				345
				348
				351
				354
				357
				360
				363
				366
				369
				372
				375
				378
				381
				384
			</DataArray>
			<DataArray type="Int32" Name="types" Format="ascii">
				5
				5
				5
				5
				5
				5
				5
				5
				5
				5
				5
				5
				5
				5
				5
				5
				5
				5
				5
				5
				5
				5
				5
				5
				5
				5
				5
				5
				5
				5
				5
				5
				5
				5
				5
				5
				5
				5
				5
				5
				5
				5
				5
				5
				5
				5
				5
				5
				5
				5
				5
				5
				5
				5
				5
				5
				5
				5
				5
				5
				5
				5
				5
				5
				5
				5
				5
				5
				5
				5
				5
				5
				5
				5
				5
				5
				5
				5
				5
				5
				5
				5
				5
				5
				5
				5
				5
				5
				5
				5
				5
				5
				5
				5
				5
				5
				5
				5
				5
				5
				5
				5
				5
				5
				5
				5
				5
				5
				5
				5
				5
				5
				5
				5
				5
				5
				5
				5
				5
				5
				5
				5
				5
				5
				5
				5
				5
				5
			</DataArray>
		</Cells>
	</Piece>
</UnstructuredGrid>
</VTKFile>