<VTKFile type="UnstructuredGrid" version="0.1" byte_order="LittleEndian">
<UnstructuredGrid>
	<Piece NumberOfPoints="4224" NumberOfCells="8192">
		<CellData Scalars="density" Vectors="velocity">
			<DataArray type="Float64" Name="density" Format="ascii">
				1.06285
				1.06401
				1.06236
				1.06356
				1.06113
				1.0626
				1.05899
				1.06119
				1.05576
				1.05887
				1.05126
				1.05542
				1.04541
				1.05068
				1.03819
				1.04461
				1.02968
				1.03722
				1.01995
				1.02861
				1.0091
				1.01886
				0.997239
				1.00809
				0.984471
				0.996396
				0.970902
				0.983874
				0.956632
				0.970628
				0.941768
				0.95675
				0.926404
				0.942349
				0.910657
				0.927508
				0.894638
				0.912353
				0.878475
				0.896984
				0.86231
				0.881529
				0.846252
				0.86613
				0.830465
				0.850901
				0.815141
				0.836014
				0.800463
				0.821657
				0.786655
				0.808013
				0.773912
				0.795321
				0.762546
				0.783789
				0.752893
				0.773741
				0.745257
				0.765472
				0.739858
				0.759292
				0.737112
				0.755398
				0.737046
				0.754112
				0.739782
				0.755393
				0.745102
				0.759253
				0.752723
				0.765424
				0.76239
				0.773643
				0.7738
				0.783619
				0.786572
				0.795069
				0.800442
				0.80766
				0.815172
				0.821169
				0.830551
				0.835376
				0.846386
				0.850086
				0.862463
				0.865135
				0.878652
				0.880339
				0.894827
				0.895574
				0.91083
				0.910737
				0.926579
				0.92567
				0.941931
				0.940313
				0.956798
				0.95453
				0.971088
				0.968249
				0.984717
				0.98138
				0.997605
				0.993849
				1.00967
				1.00559
				1.02085
				1.01652
				1.03108
				1.02659
				1.0403
				1.03576
				1.04848
				1.04396
				1.05554
				1.05116
				1.06145
				1.05733
				1.06614
				1.06249
				1.06958
				1.06668
				1.07221
				1.06981
				1.07526
				1.07043
				1.0754
				1.0704
				1.07226
				1.0703
				1.06942
				1.06958
				1.06582
				1.06641
				1.061
				1.06214
				1.05498
				1.05687
				1.0478
				1.05059
				1.03952
				1.04328
				1.03018
				1.03497
				1.01984
				1.0257
				1.00855
				1.01552
				0.996371
				1.00448
				0.983369
				0.992634
				0.969622
				0.980054
				0.955211
				0.966809
				0.940216
				0.952971
				0.924748
				0.938644
				0.908872
				0.923882
				0.892726
				0.908817
				0.876414
				0.893529
				0.860081
				0.878158
				0.843852
				0.862814
				0.827864
				0.847618
				0.812328
				0.832767
				0.797414
				0.818388
				0.783372
				0.804721
				0.770421
				0.791956
				0.75883
				0.780337
				0.748995
				0.770193
				0.741226
				0.761821
				0.735793
				0.755521
				0.732996
				0.751574
				0.733066
				0.75026
				0.735873
				0.751571
				0.741389
				0.755546
				0.74917
				0.761848
				0.75899
				0.770265
				0.770533
				0.780476
				0.783451
				0.792175
				0.797431
				0.805034
				0.812275
				0.81884
				0.82776
				0.833353
				0.8437
				0.848392
				0.859906
				0.863767
				0.876214
				0.879304
				0.892514
				0.894895
				0.908664
				0.910393
				0.924537
				0.925669
				0.940035
				0.940642
				0.955022
				0.955159
				0.969414
				0.969156
				0.983104
				0.982519
				0.995993
				0.995157
				1.00798
				1.00697
				1.01895
				1.01786
				1.0288
				1.02772
				1.03745
				1.03646
				1.04479
				1.04397
				1.05078
				1.05018
				1.05541
				1.05505
				1.05877
				1.05862
				1.06102
				1.06095
				1.06233
				1.06243
				1.0637
				1.06366
				1.06246
				1.06151
				1.06209
				1.06171
				1.06108
				1.06124
				1.05933
				1.05965
				1.05664
				1.05704
				1.05287
				1.05337
				1.048
				1.04865
				1.04205
				1.04289
				1.03508
				1.03612
				1.02713
				1.02837
				1.01828
				1.01969
				1.00859
				1.01014
				0.998142
				0.999792
				0.987003
				0.988707
				0.975252
				0.976961
				0.962969
				0.964633
				0.950237
				0.951805
				0.937145
				0.938563
				0.923786
				0.924999
				0.910266
				0.911216
				0.896695
				0.897314
				0.88319
				0.883409
				0.86989
				0.86964
				0.856945
				0.856141
				0.844525
				0.843078
				0.832819
				0.830627
				0.82204
				0.818999
				0.81243
				0.808428
				0.804254
				0.799179
				0.797782
				0.791519
				0.793259
				0.785753
				0.790912
				0.782122
				0.790844
				0.780825
				0.793079
				0.78195
				0.797483
				0.785425
				0.803851
				0.791082
				0.811933
				0.798678
				0.821459
				0.807921
				0.832158
				0.818527
				0.843792
				0.830228
				0.856143
				0.842784
				0.869025
				0.855986
				0.882267
				0.869639
				0.895713
				0.88358
				0.909238
				0.897667
				0.922718
				0.911762
				0.936045
				0.925753
				0.949127
				0.939535
				0.961865
				0.953001
				0.974183
				0.966072
				0.986004
				0.978662
				0.997259
				0.990696
				1.00788
				1.0021
				1.01782
				1.01282
				1.02702
				1.02279
				1.03542
				1.03196
				1.043
				1.04028
				1.04971
				1.04771
				1.05552
				1.05419
				1.06041
				1.05969
				1.0644
				1.06415
				1.06742
				1.06757
				1.06922
				1.07026
				1.07023
				1.07285
				1.07022
				1.07148
				1.06911
				1.07287
				1.06721
				1.07023
				1.06412
				1.06738
				1.06004
				1.06382
				1.05505
				1.05925
				1.04915
				1.05366
				1.04235
				1.04707
				1.03468
				1.03955
				1.02618
				1.03114
				1.01689
				1.02187
				1.00685
				1.0118
				0.996132
				1.00099
				0.984777
				0.989475
				0.972855
				0.977336
				0.960431
				0.96464
				0.947586
				0.951458
				0.934394
				0.937877
				0.92095
				0.923981
				0.90735
				0.909867
				0.8937
				0.895641
				0.880123
				0.881422
				0.866744
				0.867342
				0.853721
				0.853543
				0.84122
				0.840189
				0.829433
				0.827476
				0.818579
				0.815609
				0.8089
				0.804844
				0.800675
				0.795442
				0.794182
				0.787705
				0.789684
				0.781933
				0.787399
				0.778382
				0.787466
				0.777234
				0.789861
				0.778562
				0.794477
				0.782275
				0.801071
				0.788159
				0.809387
				0.795963
				0.819148
				0.805368
				0.830081
				0.8161
				0.841936
				0.827888
				0.854503
				0.840494
				0.86759
				0.853706
				0.881026
				0.867349
				0.894662
				0.881257
				0.908359
				0.895291
				0.921999
				0.90932
				0.935476
				0.923225
				0.94868
				0.936909
				0.961524
				0.950263
				0.973914
				0.963204
				0.985771
				0.975641
				0.997013
				0.987494
				1.00757
				0.998685
				1.01735
				1.00914
				1.02631
				1.01879
				1.03436
				1.02757
				1.04144
				1.03543
				1.04749
				1.0423
				1.05247
				1.04817
				1.05633
				1.05298
				1.05913
				1.05675
				1.06102
				1.05957
				1.06198
				1.06129
				1.06279
				1.06103
				1.06072
				1.06146
				1.06004
				1.06221
				1.05911
				1.06167
				1.05732
				1.06066
				1.05466
				1.05882
				1.05107
				1.056
				1.04652
				1.05214
				1.04099
				1.04727
				1.0345
				1.04141
				1.02709
				1.03461
				1.01881
				1.02694
				1.00972
				1.01845
				0.999884
				1.00921
				0.98938
				0.999294
				0.978282
				0.988774
				0.966672
				0.977721
				0.954629
				0.966217
				0.942244
				0.954341
				0.92961
				0.94218
				0.916825
				0.929827
				0.904002
				0.91738
				0.891252
				0.904953
				0.878706
				0.892661
				0.866512
				0.880637
				0.854827
				0.869033
				0.843837
				0.858012
				0.833735
				0.847765
				0.82475
				0.838491
				0.817127
				0.830418
				0.811115
				0.823779
				0.806931
				0.81881
				0.804785
				0.81568
				0.804768
				0.814563
				0.806898
				0.815483
				0.811065
				0.818405
				0.817082
				0.823184
				0.824721
				0.829622
				0.83374
				0.837489
				0.843883
				0.846556
				0.854925
				0.856588
				0.866661
				0.867383
				0.87891
				0.878753
				0.891511
				0.890532
				0.904313
				0.902579
				0.91719
				0.914755
				0.930031
				0.926946
				0.942727
				0.939052
				0.955187
				0.950971
				0.967323
				0.962624
				0.979057
				0.973929
				0.990317
				0.984816
				1.00104
				0.995219
				1.01116
				1.00508
				1.02062
				1.01435
				1.02938
				1.02297
				1.03739
				1.0309
				1.04461
				1.0381
				1.05101
				1.04454
				1.05655
				1.05019
				1.06123
				1.05501
				1.06506
				1.05895
				1.06799
				1.06197
				1.06974
				1.0641
				1.07005
				1.06543
				1.06995
				1.06636
				1.06957
				1.06538
				1.06777
				1.06395
				1.06478
				1.06173
				1.06088
				1.05863
				1.05611
				1.05461
				1.05048
				1.04972
				1.044
				1.04399
				1.03669
				1.03747
				1.02859
				1.03018
				1.01974
				1.02217
				1.01018
				1.01346
				0.999969
				1.00411
				0.989153
				0.994154
				0.977796
				0.983657
				0.965962
				0.972676
				0.953724
				0.961274
				0.941157
				0.949521
				0.92835
				0.937496
				0.915395
				0.925283
				0.902398
				0.912979
				0.889471
				0.900684
				0.876742
				0.888516
				0.864359
				0.876611
				0.85248
				0.865105
				0.841295
				0.854176
				0.831008
				0.844004
				0.821848
				0.8348
				0.814077
				0.826802
				0.807947
				0.820246
				0.803697
				0.815373
				0.801522
				0.812387
				0.80154
				0.811444
				0.803731
				0.812581
				0.808
				0.81577
				0.814123
				0.82083
				0.821876
				0.827583
				0.831
				0.835783
				0.841244
				0.845192
				0.852375
				0.855573
				0.864198
				0.866729
				0.876525
				0.878463
				0.889199
				0.890614
				0.902073
				0.903029
				0.915015
				0.915573
				0.927915
				0.928134
				0.94066
				0.940596
				0.953153
				0.952863
				0.965302
				0.964844
				0.977016
				0.976448
				0.988216
				0.9876
				0.99882
				0.998218
				1.00875
				1.00823
				1.01794
				1.01756
				1.02632
				1.02615
				1.03383
				1.03392
				1.04042
				1.04081
				1.04604
				1.04676
				1.05069
				1.05174
				1.0544
				1.05569
				1.05713
				1.05862
				1.05884
				1.06057
				1.05988
				1.06171
				1.06084
				1.06171
				1.0583
				1.05741
				1.05805
				1.05799
				1.05739
				1.05729
				1.05602
				1.0559
				1.05376
				1.05382
				1.0506
				1.05097
				1.04657
				1.0473
				1.04175
				1.0428
				1.03617
				1.03751
				1.02988
				1.03146
				1.02295
				1.02469
				1.01541
				1.01724
				1.0073
				1.00917
				0.998685
				1.00053
				0.989603
				0.991385
				0.980109
				0.981779
				0.970264
				0.97178
				0.960133
				0.961455
				0.949788
				0.950875
				0.939309
				0.940119
				0.928785
				0.929272
				0.918313
				0.918431
				0.908009
				0.907704
				0.897994
				0.897208
				0.888408
				0.887079
				0.879405
				0.877466
				0.871156
				0.868537
				0.863843
				0.860476
				0.857661
				0.85348
				0.852795
				0.847748
				0.84942
				0.843483
				0.847667
				0.840841
				0.847608
				0.839943
				0.849251
				0.840832
				0.852523
				0.843472
				0.857296
				0.847758
				0.863401
				0.853532
				0.870649
				0.860597
				0.878846
				0.86875
				0.887809
				0.877795
				0.897366
				0.887543
				0.907363
				0.897824
				0.917659
				0.908481
				0.928131
				0.919382
				0.938667
				0.930401
				0.949168
				0.94143
				0.959545
				0.952372
				0.969719
				0.963139
				0.979617
				0.973652
				0.989175
				0.98384
				0.998334
				0.993638
				1.00704
				1.00299
				1.01525
				1.01184
				1.02291
				1.02014
				1.03
				1.02785
				1.03647
				1.03494
				1.04229
				1.04136
				1.04745
				1.04709
				1.0519
				1.0521
				1.05564
				1.05639
				1.05863
				1.05994
				1.06086
				1.06268
				1.06227
				1.06454
				1.06314
				1.06568
				1.06312
				1.06518
				1.06218
				1.06557
				1.06069
				1.06438
				1.05839
				1.06246
				1.05533
				1.05967
				1.05153
				1.05606
				1.04701
				1.05169
				1.04178
				1.0466
				1.03589
				1.0408
				1.02934
				1.0343
				1.02218
				1.02714
				1.01444
				1.01935
				1.00616
				1.01096
				0.997368
				1.00203
				0.988127
				0.992594
				0.978484
				0.982709
				0.968498
				0.972431
				0.958234
				0.961826
				0.947763
				0.950963
				0.937163
				0.939921
				0.926525
				0.928788
				0.915948
				0.91766
				0.905541
				0.906648
				0.895431
				0.895874
				0.885758
				0.885473
				0.876677
				0.875604
				0.868364
				0.866436
				0.861005
				0.858163
				0.854799
				0.850985
				0.849941
				0.845113
				0.846607
				0.840749
				0.84493
				0.83806
				0.844989
				0.837155
				0.846774
				0.838072
				0.850211
				0.840766
				0.855161
				0.845111
				0.861443
				0.850942
				0.868866
				0.85805
				0.87723
				0.86623
				0.88635
				0.87528
				0.896051
				0.885015
				0.906179
				0.895262
				0.916593
				0.905873
				0.92717
				0.916711
				0.937796
				0.927659
				0.948374
				0.938609
				0.958815
				0.949464
				0.969038
				0.960141
				0.978972
				0.970559
				0.988552
				0.980648
				0.997719
				0.990342
				1.00642
				0.999579
				1.0146
				1.0083
				1.02223
				1.01645
				1.02924
				1.02398
				1.0356
				1.03084
				1.04126
				1.03697
				1.04617
				1.04235
				1.05027
				1.04692
				1.0535
				1.05066
				1.05583
				1.05359
				1.0573
				1.05586
				1.05808
				1.05754
				1.05906
				1.05732
				1.05502
				1.05584
				1.05486
				1.05657
				1.05442
				1.05625
				1.05312
				1.05538
				1.05095
				1.05365
				1.04795
				1.05106
				1.04418
				1.0477
				1.03968
				1.04366
				1.03451
				1.039
				1.02872
				1.03374
				1.02232
				1.02791
				1.01535
				1.02151
				1.00784
				1.01457
				0.999834
				1.00712
				0.991371
				0.999204
				0.982505
				0.990863
				0.973292
				0.982155
				0.963799
				0.973142
				0.954098
				0.963892
				0.944269
				0.954482
				0.934402
				0.944992
				0.924593
				0.935514
				0.914953
				0.926146
				0.9056
				0.916999
				0.896669
				0.908194
				0.888304
				0.899862
				0.880665
				0.892151
				0.873921
				0.885213
				0.868246
				0.879211
				0.863812
				0.874303
				0.860764
				0.87064
				0.859222
				0.86834
				0.859245
				0.867492
				0.860837
				0.868124
				0.863932
				0.87021
				0.868415
				0.873667
				0.874136
				0.878373
				0.880929
				0.884181
				0.888616
				0.890929
				0.897029
				0.898454
				0.906007
				0.9066
				0.915407
				0.915222
				0.925096
				0.924185
				0.934954
				0.933372
				0.944877
				0.942675
				0.954769
				0.951995
				0.964546
				0.961249
				0.974131
				0.970358
				0.983456
				0.979254
				0.99246
				0.987874
				1.00109
				0.996165
				1.00929
				1.00407
				1.01701
				1.01156
				1.02423
				1.01858
				1.0309
				1.0251
				1.03699
				1.03109
				1.04247
				1.03651
				1.04732
				1.04136
				1.05151
				1.04559
				1.05503
				1.0492
				1.05784
				1.05217
				1.05995
				1.05448
				1.06134
				1.0561
				1.06189
				1.05706
				1.06185
				1.0574
				1.06123
				1.05699
				1.05978
				1.05597
				1.05761
				1.05429
				1.05474
				1.05193
				1.05116
				1.0489
				1.0469
				1.04522
				1.04199
				1.04093
				1.03644
				1.03602
				1.03028
				1.03053
				1.02354
				1.02447
				1.01625
				1.01788
				1.00845
				1.0108
				1.00017
				1.00324
				0.991468
				0.995256
				0.982385
				0.98689
				0.972976
				0.978191
				0.963305
				0.969213
				0.953439
				0.96002
				0.943455
				0.95068
				0.933436
				0.941269
				0.923478
				0.931873
				0.913687
				0.922589
				0.904182
				0.913526
				0.895095
				0.904803
				0.886575
				0.896555
				0.878781
				0.888928
				0.871888
				0.882082
				0.866075
				0.876184
				0.861516
				0.871399
				0.858366
				0.867881
				0.856745
				0.865756
				0.856722
				0.86511
				0.858291
				0.865971
				0.861393
				0.868309
				0.865902
				0.872031
				0.871666
				0.877016
				0.87851
				0.883106
				0.886254
				0.89014
				0.894726
				0.897951
				0.903764
				0.906383
				0.913222
				0.915289
				0.922965
				0.924535
				0.932873
				0.933999
				0.942837
				0.943571
				0.95276
				0.953153
				0.962552
				0.962652
				0.972134
				0.971988
				0.981433
				0.981085
				0.990383
				0.989875
				0.998927
				0.998297
				1.00701
				1.00629
				1.0146
				1.01382
				1.02164
				1.02083
				1.02812
				1.0273
				1.03399
				1.03321
				1.03922
				1.03853
				1.04379
				1.04326
				1.04765
				1.04736
				1.05074
				1.05079
				1.05296
				1.05347
				1.05419
				1.05532
				1.05473
				1.05629
				1.05539
				1.05594
				1.05035
				1.04939
				1.05027
				1.05038
				1.04989
				1.05027
				1.04868
				1.04927
				1.04666
				1.04755
				1.04399
				1.04515
				1.04078
				1.04214
				1.03705
				1.03855
				1.03283
				1.03443
				1.02812
				1.02981
				1.02294
				1.02468
				1.01732
				1.01909
				1.01129
				1.01304
				1.00487
				1.00657
				0.99811
				0.999724
				0.991051
				0.992529
				0.983735
				0.985038
				0.976212
				0.977302
				0.968536
				0.969376
				0.960769
				0.961323
				0.95298
				0.953212
				0.945246
				0.945121
				0.937654
				0.937135
				0.9303
				0.929349
				0.923292
				0.921869
				0.916746
				0.914812
				0.910785
				0.908304
				0.905539
				0.902478
				0.901137
				0.897472
				0.897698
				0.893417
				0.895328
				0.890434
				0.894103
				0.888622
				0.894066
				0.888044
				0.895219
				0.888722
				0.897524
				0.890636
				0.900908
				0.893725
				0.905267
				0.897894
				0.910482
				0.903021
				0.916424
				0.908973
				0.922965
				0.915614
				0.92998
				0.92281
				0.937352
				0.930434
				0.944973
				0.938367
				0.952745
				0.946502
				0.960581
				0.954741
				0.968398
				0.962997
				0.976128
				0.971191
				0.983706
				0.979255
				0.991076
				0.987124
				0.998187
				0.994744
				1.00499
				1.00206
				1.01146
				1.00904
				1.01754
				1.01564
				1.02322
				1.02181
				1.02846
				1.02754
				1.03323
				1.0328
				1.03752
				1.03755
				1.04131
				1.04179
				1.04457
				1.04548
				1.04731
				1.04861
				1.0495
				1.05118
				1.05115
				1.05316
				1.05222
				1.05454
				1.05279
				1.0554
				1.05276
				1.05549
				1.05215
				1.05534
				1.05102
				1.05443
				1.04932
				1.05299
				1.04708
				1.05096
				1.04429
				1.04834
				1.04097
				1.04515
				1.03712
				1.04141
				1.03278
				1.03712
				1.02795
				1.0323
				1.02265
				1.02699
				1.01692
				1.0212
				1.01077
				1.01496
				1.00425
				1.0083
				0.997375
				1.00126
				0.990196
				0.993866
				0.982758
				0.986176
				0.975108
				0.978233
				0.967305
				0.970094
				0.959411
				0.961821
				0.951497
				0.953485
				0.943644
				0.945162
				0.93594
				0.936941
				0.928483
				0.928921
				0.921384
				0.921209
				0.914759
				0.913924
				0.908737
				0.907196
				0.903448
				0.901162
				0.899022
				0.89596
				0.895585
				0.891727
				0.893242
				0.888589
				0.892069
				0.886644
				0.892106
				0.885955
				0.89335
				0.886543
				0.895757
				0.888386
				0.899249
				0.891417
				0.903717
				0.895536
				0.909037
				0.900617
				0.915077
				0.906525
				0.921707
				0.913119
				0.928799
				0.920264
				0.936236
				0.927832
				0.943911
				0.935705
				0.951726
				0.943776
				0.959595
				0.951951
				0.967438
				0.960143
				0.975188
				0.968274
				0.982783
				0.976276
				0.990168
				0.984087
				0.997296
				0.991649
				1.00412
				0.998914
				1.0106
				1.00583
				1.0167
				1.01237
				1.02239
				1.01848
				1.02762
				1.02414
				1.03239
				1.02932
				1.03667
				1.03401
				1.04045
				1.03818
				1.04372
				1.04182
				1.04644
				1.04489
				1.04851
				1.04737
				1.04982
				1.04928
				1.05038
				1.05056
				1.0511
				1.04981
				1.046
				1.04645
				1.04649
				1.04716
				1.04641
				1.04716
				1.04532
				1.04641
				1.04345
				1.04485
				1.04098
				1.0427
				1.03802
				1.04007
				1.03458
				1.03701
				1.0307
				1.03352
				1.02637
				1.02961
				1.02162
				1.0253
				1.01647
				1.0206
				1.01094
				1.01554
				1.00506
				1.01012
				0.998854
				1.00439
				0.992356
				0.998348
				0.985607
				0.992041
				0.978652
				0.985507
				0.971544
				0.978793
				0.964344
				0.971956
				0.957119
				0.965059
				0.949948
				0.958174
				0.942914
				0.951378
				0.936113
				0.944757
				0.929645
				0.938405
				0.923621
				0.93242
				0.918155
				0.926908
				0.913366
				0.921978
				0.909368
				0.917736
				0.906269
				0.914286
				0.90416
				0.911719
				0.903107
				0.910108
				0.903145
				0.9095
				0.904275
				0.909917
				0.906457
				0.91134
				0.909625
				0.913723
				0.913686
				0.916995
				0.918536
				0.921066
				0.924059
				0.925834
				0.930137
				0.93119
				0.936658
				0.937025
				0.943513
				0.943235
				0.950602
				0.949721
				0.957834
				0.956392
				0.965125
				0.963163
				0.9724
				0.969959
				0.979593
				0.976714
				0.986645
				0.983366
				0.9935
				0.98986
				1.00011
				0.996151
				1.00644
				1.0022
				1.01245
				1.00796
				1.01811
				1.0134
				1.02338
				1.0185
				1.02824
				1.02322
				1.03267
				1.02756
				1.03666
				1.03148
				1.04018
				1.03498
				1.04321
				1.03803
				1.04576
				1.04063
				1.0478
				1.04276
				1.04932
				1.04442
				1.05032
				1.0456
				1.0508
				1.0463
				1.05077
				1.04651
				1.05025
				1.04625
				1.04919
				1.0455
				1.04762
				1.04427
				1.04554
				1.04257
				1.04294
				1.04039
				1.03986
				1.03775
				1.03629
				1.03465
				1.03225
				1.0311
				1.02776
				1.02713
				1.02285
				1.02274
				1.01752
				1.01796
				1.01181
				1.01281
				1.00574
				1.00731
				0.999349
				1.00149
				0.992673
				0.99539
				0.985752
				0.989038
				0.978634
				0.98248
				0.971371
				0.975764
				0.964025
				0.968942
				0.956661
				0.962076
				0.949354
				0.955234
				0.942188
				0.948492
				0.935255
				0.941933
				0.928657
				0.93565
				0.922503
				0.929742
				0.916907
				0.924316
				0.91199
				0.919484
				0.90787
				0.915354
				0.904655
				0.912033
				0.902438
				0.909612
				0.90129
				0.908166
				0.901252
				0.907741
				0.902321
				0.908357
				0.904463
				0.909992
				0.907608
				0.912596
				0.911663
				0.916094
				0.916519
				0.920393
				0.922056
				0.925388
				0.928156
				0.930969
				0.934701
				0.937025
				0.94158
				0.94345
				0.948691
				0.950144
				0.955939
				0.957012
				0.963238
				0.963969
				0.970511
				0.970936
				0.97769
				0.977842
				0.984714
				0.984622
				0.99153
				0.991222
				0.998092
				0.997592
				1.00436
				1.00369
				1.0103
				1.00949
				1.01589
				1.01496
				1.0211
				1.02008
				1.0259
				1.02483
				1.03028
				1.02919
				1.03422
				1.03316
				1.03771
				1.0367
				1.04074
				1.03981
				1.04326
				1.04248
				1.04515
				1.0447
				1.04619
				1.04636
				1.04638
				1.04717
				1.04648
				1.04644
				1.03982
				1.03905
				1.04012
				1.04043
				1.03991
				1.04082
				1.03887
				1.03997
				1.03728
				1.03853
				1.03528
				1.03665
				1.03291
				1.03438
				1.03018
				1.03173
				1.02711
				1.0287
				1.02372
				1.02533
				1.02002
				1.02161
				1.016
				1.01757
				1.0117
				1.01321
				1.00713
				1.00856
				1.0023
				1.00364
				0.997261
				0.998472
				0.992037
				0.993091
				0.986667
				0.987536
				0.981196
				0.981848
				0.97567
				0.976076
				0.970142
				0.970274
				0.964671
				0.964501
				0.95932
				0.958823
				0.95416
				0.953312
				0.949268
				0.948046
				0.944724
				0.943109
				0.940612
				0.938588
				0.937016
				0.934574
				0.934018
				0.931154
				0.931692
				0.92841
				0.930097
				0.926415
				0.92928
				0.925223
				0.929263
				0.924871
				0.930046
				0.925367
				0.931611
				0.9267
				0.933915
				0.928836
				0.9369
				0.931721
				0.940491
				0.935281
				0.944607
				0.939432
				0.949166
				0.944087
				0.954081
				0.949156
				0.959271
				0.95455
				0.964658
				0.960184
				0.970169
				0.96598
				0.975739
				0.971866
				0.981306
				0.977773
				0.986817
				0.983644
				0.992223
				0.989423
				0.99748
				0.995065
				1.00255
				1.00053
				1.0074
				1.00577
				1.01201
				1.01076
				1.01633
				1.01547
				1.02036
				1.01988
				1.02408
				1.02396
				1.02746
				1.0277
				1.03049
				1.03107
				1.03316
				1.03407
				1.03547
				1.03668
				1.0374
				1.0389
				1.03894
				1.0407
				1.0401
				1.0421
				1.04086
				1.04309
				1.04124
				1.04369
				1.04122
				1.04385
				1.0408
				1.04364
				1.04
				1.043
				1.0388
				1.04198
				1.03722
				1.04054
				1.03525
				1.03869
				1.0329
				1.03643
				1.03019
				1.03378
				1.02711
				1.03073
				1.02369
				1.02731
				1.01993
				1.02353
				1.01585
				1.01941
				1.01148
				1.01495
				1.00683
				1.01019
				1.00193
				1.00515
				0.996804
				0.999851
				0.991494
				0.994336
				0.986034
				0.98864
				0.980468
				0.982802
				0.974843
				0.976873
				0.969216
				0.970905
				0.963645
				0.964958
				0.958199
				0.9591
				0.952949
				0.953403
				0.947976
				0.947947
				0.943361
				0.942817
				0.939191
				0.938104
				0.935552
				0.933899
				0.932527
				0.930292
				0.93019
				0.927367
				0.928602
				0.9252
				0.927807
				0.923848
				0.927824
				0.923345
				0.928652
				0.923702
				0.930269
				0.924912
				0.932629
				0.926937
				0.935667
				0.929719
				0.939311
				0.933186
				0.943475
				0.937254
				0.948075
				0.941832
				0.953026
				0.946829
				0.958244
				0.952157
				0.963655
				0.957731
				0.969185
				0.963471
				0.974771
				0.969306
				0.980354
				0.975169
				0.985882
				0.981
				0.991306
				0.986746
				0.996584
				0.992359
				1.00168
				0.997794
				1.00655
				1.00302
				1.01118
				1.00799
				1.01553
				1.01269
				1.01958
				1.0171
				1.02334
				1.02119
				1.02677
				1.02495
				1.02988
				1.02837
				1.03265
				1.03143
				1.03506
				1.03413
				1.03709
				1.03644
				1.03872
				1.0384
				1.03986
				1.03999
				1.04026
				1.04106
				1.04038
				1.04004
				1.03549
				1.0355
				1.03648
				1.03617
				1.03648
				1.03648
				1.03556
				1.03589
				1.03413
				1.03467
				1.03232
				1.0331
				1.03017
				1.03122
				1.02769
				1.02903
				1.02491
				1.02654
				1.02183
				1.02378
				1.01846
				1.02075
				1.01481
				1.01744
				1.01089
				1.01388
				1.00673
				1.01008
				1.00235
				1.00605
				0.997761
				1.00182
				0.993004
				0.99741
				0.988107
				0.992848
				0.983109
				0.988166
				0.978054
				0.983404
				0.972992
				0.978605
				0.967978
				0.973821
				0.963075
				0.969108
				0.958351
				0.964528
				0.953877
				0.960147
				0.949731
				0.956034
				0.945989
				0.952262
				0.94273
				0.948902
				0.940026
				0.946024
				0.937942
				0.943692
				0.936532
				0.94196
				0.935836
				0.940872
				0.935871
				0.940454
				0.936642
				0.940721
				0.938123
				0.941661
				0.940274
				0.943249
				0.94304
				0.94544
				0.946358
				0.948183
				0.950155
				0.951414
				0.954354
				0.955064
				0.958879
				0.959063
				0.963655
				0.963339
				0.968612
				0.967825
				0.973682
				0.972454
				0.978804
				0.977166
				0.983923
				0.981906
				0.988988
				0.986623
				0.993956
				0.991274
				0.998785
				0.995816
				1.00344
				1.00022
				1.0079
				1.00444
				1.01212
				1.00847
				1.01609
				1.01227
				1.01979
				1.01582
				1.02319
				1.01911
				1.02629
				1.02213
				1.02908
				1.02485
				1.03153
				1.02728
				1.03365
				1.0294
				1.03542
				1.03119
				1.03685
				1.03266
				1.03791
				1.03381
				1.0386
				1.03463
				1.03894
				1.03512
				1.03892
				1.03526
				1.03855
				1.03508
				1.03781
				1.03455
				1.03671
				1.0337
				1.03525
				1.03252
				1.03344
				1.03101
				1.03129
				1.02918
				1.02879
				1.02702
				1.02597
				1.02456
				1.02283
				1.0218
				1.01938
				1.01874
				1.01564
				1.01541
				1.01162
				1.01181
				1.00736
				1.00797
				1.00286
				1.0039
				0.998151
				0.999632
				0.993272
				0.995186
				0.988254
				0.990595
				0.983137
				0.985897
				0.977965
				0.981129
				0.972789
				0.976338
				0.967665
				0.971575
				0.962654
				0.966894
				0.957823
				0.962358
				0.953245
				0.958031
				0.948995
				0.953983
				0.94515
				0.950287
				0.941789
				0.947014
				0.938986
				0.944235
				0.936805
				0.942013
				0.935303
				0.940402
				0.934521
				0.939448
				0.934485
				0.939177
				0.935191
				0.939599
				0.93662
				0.940702
				0.938732
				0.942456
				0.941473
				0.944819
				0.944775
				0.947734
				0.948563
				0.951135
				0.952761
				0.954953
				0.957288
				0.959114
				0.962067
				0.963546
				0.967025
				0.968178
				0.972094
				0.972943
				0.977211
				0.977779
				0.98232
				0.982629
				0.98737
				0.987442
				0.992319
				0.992173
				0.997127
				0.996784
				1.00176
				1.00124
				1.00619
				1.00552
				1.0104
				1.00959
				1.01436
				1.01344
				1.01805
				1.01704
				1.02147
				1.02038
				1.02459
				1.02346
				1.02741
				1.02626
				1.02993
				1.02877
				1.03212
				1.031
				1.03396
				1.03293
				1.03539
				1.03455
				1.03628
				1.03583
				1.03642
				1.03643
				1.03595
				1.03554
				1.02915
				1.02856
				1.02975
				1.03018
				1.02961
				1.03075
				1.02881
				1.02998
				1.02769
				1.02891
				1.02629
				1.02758
				1.02465
				1.02598
				1.02277
				1.02413
				1.02066
				1.02203
				1.01833
				1.01969
				1.01579
				1.01712
				1.01303
				1.01432
				1.01007
				1.0113
				1.00693
				1.00809
				1.00362
				1.00468
				1.00016
				1.00111
				0.996576
				0.997398
				0.992895
				0.993564
				0.989148
				0.989644
				0.98537
				0.985672
				0.981599
				0.981688
				0.977878
				0.977735
				0.974253
				0.973861
				0.970771
				0.970117
				0.967485
				0.966557
				0.964449
				0.963238
				0.961715
				0.960218
				0.959337
				0.957554
				0.957366
				0.955299
				0.955843
				0.953506
				0.954806
				0.952214
				0.954279
				0.951455
				0.954277
				0.951249
				0.954797
				0.9516
				0.95583
				0.952499
				0.957351
				0.95393
				0.959328
				0.95586
				0.961716
				0.958245
				0.964466
				0.961036
				0.967523
				0.964176
				0.970834
				0.967607