<VTKFile type="UnstructuredGrid" version="0.1" byte_order="LittleEndian">
<UnstructuredGrid>
	<Piece NumberOfPoints="80" NumberOfCells="128">
		<CellData Scalars="density" Vectors="velocity">
			<DataArray type="Float64" Name="density" Format="ascii">
				nan
				nan
				nan
				nan
				nan
				nan
				nan
				0.948352
				nan
				nan
				nan
				nan
				1.11025
				0.944407
				1.12706
				0.937524
				1.12652
				0.936755
				1.10901
				0.937455
				1.08984
				0.944312
				1.07212
				0.948393
				1.05634
				0.949028
				nan
				0.948308
				nan
				nan
				nan
				nan
				nan
				nan
				nan
				nan
				nan
				nan
				nan
				0.9018
				nan
				nan
				nan
				nan
				1.08561
				0.898067
				1.09093
				0.889465
				1.09093
				0.881446
				1.08561
				0.889461
				1.07991
				0.898062
				nan
				0.902476
				nan
				0.903019
				nan
				0.901797
				nan
				nan
				nan
				nan
				-nan
				-nan
				nan
				-nan
				-nan
				-nan
				nan
				nan
				nan
				-nan
				-nan
				-nan
				1.06189
				0.929955
				1.07003
				0.922397
				1.07003
				0.919228
				1.06189
				0.922397
				1.05795
				0.929955
				nan
				0.934703
				nan
				nan
				nan
				nan
				nan
				-nan
				-nan
				-nan
				nan
				nan
				nan
				nan
				nan
				nan
				nan
				nan
				nan
				nan
				nan
				nan
				1.05658
				0.898408
				1.06006
				0.889041
				1.05978
				0.878698
				1.05586
				0.889041
				1.05225
				0.898408
				nan
				0.903418
				nan
				nan
				nan
				nan
				nan
				nan
				nan
				nan
			</DataArray>
			<DataArray type="Float64" Name="mach-number" Format="ascii">
				nan
				nan
				nan
				nan
				nan
				nan
				nan
				0.384858
				nan
				nan
				nan
				nan
				0.357306
				0.369045
				0.350037
				0.360441
				0.350155
				0.358138
				0.357544
				0.360503
				0.368955
				0.369098
				0.37792
				0.376205
				0.380986
				0.38105
				nan
				0.384869
				nan
				nan
				nan
				nan
				nan
				nan
				nan
				nan
				nan
				nan
				nan
				0.379455
				nan
				nan
				nan
				nan
				0.385778
				0.380984
				0.388011
				0.381409
				0.388012
				0.381618
				0.385779
				0.381414
				0.383537
				0.380989
				nan
				0.380538
				nan
				0.38001
				nan
				0.379455
				nan
				nan
				nan
				nan
				-nan
				-nan
				nan
				-nan
				-nan
				-nan
				nan
				nan
				nan
				-nan
				-nan
				-nan
				0.377484
				0.372319
				0.377427
				0.367944
				0.377427
				0.365846
				0.377484
				0.367944
				0.37839
				0.372319
				nan
				0.376369
				nan
				nan
				nan
				nan
				nan
				-nan
				-nan
				-nan
				nan
				nan
				nan
				nan
				nan
				nan
				nan
				nan
				nan
				nan
				nan
				nan
				0.383555
				0.380907
				0.385101
				0.381396
				0.385078
				0.3817
				0.383512
				0.381396
				0.382058
				0.380907
				nan
				0.380444
				nan
				nan
				nan
				nan
				nan
				nan
				nan
				nan
			</DataArray>
			<DataArray type="Float64" Name="pressure" Format="ascii">
				nan
				nan
				nan
				nan
				nan
				nan
				nan
				4.68268
				nan
				nan
				nan
				nan
				5.58687
				4.67607
				5.6971
				4.64334
				5.69391
				4.64045
				5.57962
				4.64282
				5.4461
				4.67534
				5.31893
				4.69262
				5.2066
				4.69159
				nan
				4.68238
				nan
				nan
				nan
				nan
				nan
				nan
				nan
				nan
				nan
				nan
				nan
				4.46097
				nan
				nan
				nan
				nan
				5.36946
				4.44314
				5.39566
				4.40095
				5.39566
				4.36141
				5.36945
				4.40093
				5.34141
				4.44311
				nan
				4.46466
				nan
				4.4672
				nan
				4.46095
				nan
				nan
				nan
				nan
				-nan
				-nan
				nan
				-nan
				-nan
				-nan
				nan
				nan
				nan
				-nan
				-nan
				-nan
				5.24988
				4.59759
				5.28958
				4.55951
				5.28958
				4.5435
				5.24988
				4.55951
				5.23094
				4.59759
				nan
				4.62141
				nan
				nan
				nan
				nan
				nan
				-nan
				-nan
				-nan
				nan
				nan
				nan
				nan
				nan
				nan
				nan
				nan
				nan
				nan
				nan
				nan
				5.22645
				4.44431
				5.24366
				4.39805
				5.24225
				4.34693
				5.22287
				4.39805
				5.20504
				4.44431
				nan
				4.46907
				nan
				nan
				nan
				nan
				nan
				nan
				nan
				nan
			</DataArray>
			<DataArray type="Float64" Name="velocity" NumberOfComponents="3" Format="ascii">
				nan nan 0.0 
				nan nan 0.0 
				nan nan 0.0 
				nan nan 0.0 
				nan nan 0.0 
				nan nan 0.0 
				nan nan 0.0 
				1.01157 0.0250601 0.0 
				nan nan 0.0 
				nan nan 0.0 
				nan nan 0.0 
				nan nan 0.0 
				0.947705 0.0355168 0.0 
				0.971235 0.0279642 0.0 
				0.931051 0.0150412 0.0 
				0.948924 0.019407 0.0 
				0.931329 -0.0150237 0.0 
				0.943152 -5.35501e-05 0.0 
				0.948267 -0.0351528 0.0 
				0.94907 -0.0194016 0.0 
				0.975159 -0.0377034 0.0 
				0.971352 -0.0278161 0.0 
				0.99573 -0.0226528 0.0 
				0.989758 -0.0279871 0.0 
				1.0008 -0.000543215 0.0 
				1.00209 -0.0272318 0.0 
				nan nan 0.0 
				1.01159 -0.0249535 0.0 
				nan nan 0.0 
				nan nan 0.0 
				nan nan 0.0 
				nan nan 0.0 
				nan nan 0.0 
				nan nan 0.0 
				nan nan 0.0 
				nan nan 0.0 
				nan nan 0.0 
				nan nan 0.0 
				nan nan 0.0 
				0.998576 -0.00354381 0.0 
				nan nan 0.0 
				nan nan 0.0 
				nan nan 0.0 
				nan nan 0.0 
				1.01508 -0.0120579 0.0 
				1.00268 -0.00269749 0.0 
				1.021 -0.00572049 0.0 
				1.00384 -0.00163968 0.0 
				1.021 0.00571959 0.0 
				1.0044 -1.63622e-06 0.0 
				1.01508 0.0120592 0.0 
				1.00385 0.00164248 0.0 
				1.00915 0.0151432 0.0 
				1.00268 0.00270786 0.0 
				nan nan 0.0 
				1.00147 0.0034496 0.0 
				nan nan 0.0 
				1.00006 0.00391822 0.0 
				nan nan 0.0 
				0.998575 0.00355113 0.0 
				nan nan 0.0 
				nan nan 0.0 
				nan nan 0.0 
				nan nan 0.0 
				-nan -nan 0.0 
				-nan -nan 0.0 
				nan nan 0.0 
				-nan -nan 0.0 
				-nan -nan 0.0 
				-nan -nan 0.0 
				nan nan 0.0 
				nan nan 0.0 
				nan nan 0.0 
				-nan -nan 0.0 
				-nan -nan 0.0 
				-nan -nan 0.0 
				0.993112 0.00192944 0.0 
				0.979306 0.0204802 0.0 
				0.992912 0.00031299 0.0 
				0.967846 0.0130462 0.0 
				0.992912 -0.000312989 0.0 
				0.962379 9.22232e-10 0.0 
				0.993112 -0.00192944 0.0 
				0.967846 -0.0130462 0.0 
				0.995538 -0.00402724 0.0 
				0.979306 -0.0204802 0.0 
				nan nan 0.0 
				0.989919 -0.024147 0.0 
				nan nan 0.0 
				nan nan 0.0 
				nan nan 0.0 
				nan nan 0.0 
				nan nan 0.0 
				-nan -nan 0.0 
				-nan -nan 0.0 
				-nan -nan 0.0 
				nan nan 0.0 
				nan nan 0.0 
				nan nan 0.0 
				nan nan 0.0 
				nan nan 0.0 
				nan nan 0.0 
				nan nan 0.0 
				nan nan 0.0 
				nan nan 0.0 
				nan nan 0.0 
				nan nan 0.0 
				nan nan 0.0 
				1.00932 -0.00827749 0.0 
				1.00241 -0.00241818 0.0 
				1.01341 -0.00469965 0.0 
				1.00371 -0.00154346 0.0 
				1.01335 0.00467855 0.0 
				1.00452 2.2762e-11 0.0 
				1.00921 0.00817719 0.0 
				1.00371 0.00154346 0.0 
				1.00537 0.00955187 0.0 
				1.00241 0.00241818 0.0 
				nan nan 0.0 
				1.00119 0.00287808 0.0 
				nan nan 0.0 
				nan nan 0.0 
				nan nan 0.0 
				nan nan 0.0 
				nan nan 0.0 
				nan nan 0.0 
				nan nan 0.0 
				nan nan 0.0 
			</DataArray>
		</CellData>
		<Points>
		<DataArray type="Float64" NumberOfComponents="3" Format="ascii">
			0.5 0 0.0 
			0.46194 0.191342 0.0 
			0.353553 0.353553 0.0 
			0.191342 0.46194 0.0 
			-2.18557e-08 0.5 0.0 
			-0.191342 0.46194 0.0 
			-0.353553 0.353553 0.0 
			-0.46194 0.191342 0.0 
			-0.5 -4.37114e-08 0.0 
			-0.46194 -0.191342 0.0 
			-0.353553 -0.353553 0.0 
			-0.191342 -0.46194 0.0 
			6.55671e-08 -0.5 0.0 
			0.191342 -0.46194 0.0 
			0.353553 -0.353553 0.0 
			0.46194 -0.191342 0.0 
			0.884503 0.175939 0.0 
			0.749846 0.501031 0.0 
			0.501031 0.749846 0.0 
			0.175939 0.884503 0.0 
			-0.175939 0.884503 0.0 
			-0.501031 0.749846 0.0 
			-0.749846 0.501031 0.0 
			-0.884503 0.175939 0.0 
			-0.884503 -0.175939 0.0 
			-0.749846 -0.501031 0.0 
			-0.501031 -0.749846 0.0 
			-0.175939 -0.884503 0.0 
			0.175939 -0.884503 0.0 
			0.501031 -0.749846 0.0 
			0.749846 -0.501031 0.0 
			0.884503 -0.175938 0.0 
			2.20148 0 0.0 
			2.0339 0.842468 0.0 
			1.55668 1.55668 0.0 
			0.842468 2.0339 0.0 
			-9.62295e-08 2.20148 0.0 
			-0.842468 2.0339 0.0 
			-1.55668 1.55668 0.0 
			-2.0339 0.842468 0.0 
			-2.20148 -1.92459e-07 0.0 
			-2.0339 -0.842468 0.0 
			-1.55668 -1.55668 0.0 
			-0.842468 -2.0339 0.0 
			2.88689e-07 -2.20148 0.0 
			0.842468 -2.0339 0.0 
			1.55668 -1.55668 0.0 
			2.0339 -0.842468 0.0 
			6.28184 1.24954 0.0 
			5.32549 3.55838 0.0 
			3.55838 5.32549 0.0 
			1.24954 6.28184 0.0 
			-1.24954 6.28184 0.0 
			-3.55838 5.32549 0.0 
			-5.32549 3.55838 0.0 
			-6.28184 1.24954 0.0 
			-6.28184 -1.24954 0.0 
			-5.32549 -3.55838 0.0 
			-3.55838 -5.32549 0.0 
			-1.24954 -6.28184 0.0 
			1.24954 -6.28184 0.0 
			3.55838 -5.32549 0.0 
			5.32549 -3.55838 0.0 
			6.28184 -1.24953 0.0 
			20.0001 0 0.0 
			18.4777 7.6537 0.0 
			14.1422 14.1422 0.0 
			7.6537 18.4777 0.0 
			-8.74231e-07 20.0001 0.0 
			-7.6537 18.4777 0.0 
			-14.1422 14.1422 0.0 
			-18.4777 7.65369 0.0 
			-20.0001 -1.74846e-06 0.0 
			-18.4777 -7.6537 0.0 
			-14.1422 -14.1422 0.0 
			-7.65369 -18.4777 0.0 
			2.62269e-06 -20.0001 0.0 
			7.6537 -18.4777 0.0 
			14.1422 -14.1422 0.0 
			18.4777 -7.65369 0.0 
		</DataArray>
		</Points>
		<Cells>
			<DataArray type="UInt32" Name="connectivity" Format="ascii">
				0 16 1 
				0 31 16 
				1 17 2 
				1 16 17 
				2 18 3 
				2 17 18 
				3 19 4 
				3 18 19 
				4 20 5 
				4 19 20 
				5 21 6 
				5 20 21 
				6 22 7 
				6 21 22 
				7 23 8 
				7 22 23 
				8 24 9 
				8 23 24 
				9 25 10 
				9 24 25 
				10 26 11 
				10 25 26 
				11 27 12 
				11 26 27 
				12 28 13 
				12 27 28 
				13 29 14 
				13 28 29 
				14 30 15 
				14 29 30 
				15 31 0 
				15 30 31 
				16 32 33 
				16 31 32 
				17 33 34 
				17 16 33 
				18 34 35 
				18 17 34 
				19 35 36 
				19 18 35 
				20 36 37 
				20 19 36 
				21 37 38 
				21 20 37 
				22 38 39 
				22 21 38 
				23 39 40 
				23 22 39 
				24 40 41 
				24 23 40 
				25 41 42 
				25 24 41 
				26 42 43 
				26 25 42 
				27 43 44 
				27 26 43 
				28 44 45 
				28 27 44 
				29 45 46 
				29 28 45 
				30 46 47 
				30 29 46 
				31 47 32 
				31 30 47 
				32 48 33 
				32 63 48 
				33 49 34 
				33 48 49 
				34 50 35 
				34 49 50 
				35 51 36 
				35 50 51 
				36 52 37 
				36 51 52 
				37 53 38 
				37 52 53 
				38 54 39 
				38 53 54 
				39 55 40 
				39 54 55 
				40 56 41 
				40 55 56 
				41 57 42 
				41 56 57 
				42 58 43 
				42 57 58 
				43 59 44 
				43 58 59 
				44 60 45 
				44 59 60 
				45 61 46 
				45 60 61 
				46 62 47 
				46 61 62 
				47 63 32 
				47 62 63 
				48 64 65 
				48 63 64 
				49 65 66 
				49 48 65 
				50 66 67 
				50 49 66 
				51 67 68 
				51 50 67 
				52 68 69 
				52 51 68 
				53 69 70 
				53 52 69 
				54 70 71 
				54 53 70 
				55 71 72 
				55 54 71 
				56 72 73 
				56 55 72 
				57 73 74 
				57 56 73 
				58 74 75 
				58 57 74 
				59 75 76 
				59 58 75 
				60 76 77 
				60 59 76 
				61 77 78 
				61 60 77 
				62 78 79 
				62 61 78 
				63 79 64 
				63 62 79 
			</DataArray>
			<DataArray type="UInt32" Name="offsets" Format="ascii">
				3
				6
				9
				12
				15
				18
				21
				24
				27
				30
				33
				36
				39
				42
				45
				48
				51
				54
				57
				60
				63
				66
				69
				72
				75
				78
				81
				84
				87
				90
				93
				96
				99
				102
				105
				108
				111
				114
				117
				120
				123
				126
				129
				132
				135
				138
				141
				144
				147
				150
				153
				156
				159
				162
				165
				168
				171
				174
				177
				180
				183
				186
				189
				192
				195
				198
				201
				204
				207
				210
				213
				216
				219
				222
				225
				228
				231
				234
				237
				240
				243
				246
				249
				252
				255
				258
				261
				264
				267
				270
				273
				276
				279
				282
				285
				288
				291
				294
				297
				300
				303
				306
				309
				312
				315
				318
				321
				324
				327
				330
				333
				336
				339
				342
				345
				348
				351
				354
				357
				360
				363
				366
				369
				372
				375
				378
				381
				384
			</DataArray>
			<DataArray type="Int32" Name="types" Format="ascii">
				5
				5
				5
				5
				5
				5
				5
				5
				5
				5
				5
				5
				5
				5
				5
				5
				5
				5
				5
				5
				5
				5
				5
				5
				5
				5
				5
				5
				5
				5
				5
				5
				5
				5
				5
				5
				5
				5
				5
				5
				5
				5
				5
				5
				5
				5
				5
				5
				5
				5
				5
				5
				5
				5
				5
				5
				5
				5
				5
				5
				5
				5
				5
				5
				5
				5
				5
				5
				5
				5
				5
				5
				5
				5
				5
				5
				5
				5
				5
				5
				5
				5
				5
				5
				5
				5
				5
				5
				5
				5
				5
				5
				5
				5
				5
				5
				5
				5
				5
				5
				5
				5
				5
				5
				5
				5
				5
				5
				5
				5
				5
				5
				5
				5
				5
				5
				5
				5
				5
				5
				5
				5
				5
				5
				5
				5
				5
				5
			</DataArray>
		</Cells>
	</Piece>
</UnstructuredGrid>
</VTKFile>