<VTKFile type="UnstructuredGrid" version="0.1" byte_order="LittleEndian">
<UnstructuredGrid>
	<Piece NumberOfPoints="2050" NumberOfCells="3972">
		<PointData Scalars="density" Vectors="velocity">
			<DataArray type="Float64" Name="density" Format="ascii">
				0.262548
				0.142414
				0.266788
				0.216583
				0.250119
				0.249774
				0.260443
				0.257814
				0.253376
				0.24813
				0.241693
				0.235059
				0.226386
				0.21601
				0.206661
				0.1983
				0.184846
				0.175409
				0.17272
				0.145781
				0.139231
				0.144833
				0.154902
				0.170556
				0.179291
				0.187255
				0.199677
				0.210083
				0.219229
				0.228014
				0.235772
				0.244328
				0.250656
				0.257168
				0.260964
				0.264372
				0.268118
				0.268333
				0.267268
				0.264815
				0.262314
				0.258132
				0.252809
				0.248404
				0.242403
				0.237324
				0.231502
				0.226951
				0.223259
				0.218118
				0.217378
				0.216578
				0.219346
				0.22259
				0.227317
				0.232776
				0.238847
				0.244071
				0.249707
				0.253696
				0.257306
				0.260786
				0.262491
				0.263701
				0.264165
				0.26387
				0.250161
				0.250211
				0.250242
				0.250284
				0.250319
				0.250364
				0.250435
				0.250429
				0.25048
				0.250516
				0.250543
				0.250561
				0.250601
				0.250648
				0.250649
				0.250666
				0.250675
				0.250686
				0.250673
				0.250611
				0.250615
				0.250555
				0.25051
				0.250431
				0.250384
				0.250313
				0.250291
				0.250236
				0.2502
				0.25007
				0.249855
				0.249829
				0.249881
				0.249866
				0.249818
				0.249723
				0.249667
				0.249593
				0.249526
				0.249479
				0.249438
				0.249353
				0.24925
				0.24929
				0.249269
				0.249269
				0.249239
				0.249303
				0.249326
				0.249388
				0.249437
				0.249517
				0.249578
				0.249616
				0.2497
				0.249761
				0.249816
				0.24987
				0.249921
				0.249972
				0.25002
				0.250071
				0.250195
				0.249432
				0.25063
				0.250624
				0.249144
				0.249927
				0.250551
				0.250775
				0.25095
				0.249949
				0.248295
				0.248827
				0.250138
				0.25112
				0.251159
				0.249195
				0.25156
				0.245452
				0.248135
				0.251018
				0.252112
				0.250909
				0.251933
				0.253484
				0.243011
				0.247738
				0.23813
				0.248159
				0.251113
				0.253972
				0.254846
				0.250104
				0.253317
				0.256992
				0.243067
				0.232754
				0.254717
				0.250408
				0.249852
				0.250666
				0.249494
				0.237227
				0.251099
				0.249069
				0.225466
				0.250174
				0.248193
				0.245887
				0.251933
				0.24791
				0.213617
				0.2504
				0.246738
				0.257655
				0.257772
				0.249511
				0.259483
				0.261652
				0.250462
				0.249134
				0.249692
				0.250976
				0.250803
				0.249317
				0.249446
				0.249749
				0.249451
				0.250549
				0.24974
				0.250541
				0.250013
				0.257287
				0.231281
				0.250056
				0.245705
				0.250431
				0.249113
				0.247951
				0.250532
				0.249891
				0.250428
				0.250217
				0.250829
				0.211126
				0.249651
				0.25047
				0.249889
				0.250732
				0.248829
				0.250779
				0.251157
				0.249407
				0.250676
				0.260181
				0.251084
				0.248652
				0.238912
				0.2511
				0.250741
				0.250447
				0.250238
				0.241219
				0.252447
				0.249206
				0.239702
				0.242714
				0.242941
				0.261141
				0.250994
				0.200423
				0.249718
				0.251678
				0.250771
				0.252114
				0.250889
				0.251975
				0.249897
				0.256173
				0.249544
				0.248243
				0.249964
				0.247341
				0.250273
				0.242534
				0.250226
				0.264146
				0.249333
				0.211299
				0.237106
				0.250561
				0.249859
				0.251454
				0.249552
				0.250324
				0.248959
				0.253329
				0.250555
				0.249889
				0.247174
				0.250299
				0.249596
				0.250799
				0.247862
				0.250976
				0.248253
				0.250515
				0.250022
				0.249309
				0.249292
				0.250693
				0.242709
				0.249717
				0.246174
				0.24903
				0.249381
				0.254054
				0.250566
				0.250651
				0.25029
				0.187649
				0.21862
				0.249685
				0.249202
				0.25012
				0.243051
				0.249903
				0.250419
				0.249384
				0.251163
				0.251287
				0.249516
				0.250588
				0.250528
				0.256041
				0.24997
				0.250898
				0.261481
				0.260924
				0.250504
				0.252071
				0.250864
				0.251264
				0.248747
				0.251287
				0.246881
				0.250375
				0.248898
				0.249363
				0.250662
				0.251088
				0.248
				0.252186
				0.264322
				0.254736
				0.246899
				0.262054
				0.244801
				0.249055
				0.238996
				0.249918
				0.251328
				0.222594
				0.24907
				0.250186
				0.24988
				0.249628
				0.256832
				0.249428
				0.249871
				0.248556
				0.248544
				0.230042
				0.254651
				0.249719
				0.250883
				0.251647
				0.24947
				0.250534
				0.250774
				0.250808
				0.250157
				0.226654
				0.246662
				0.250445
				0.251078
				0.249903
				0.249504
				0.25031
				0.2505
				0.250307
				0.239821
				0.249396
				0.249877
				0.249687
				0.23437
				0.250604
				0.248865
				0.257032
				0.250762
				0.250827
				0.250372
				0.250087
				0.246724
				0.249583
				0.250415
				0.25751
				0.249574
				0.249672
				0.248642
				0.250244
				0.243107
				0.250922
				0.251326
				0.251045
				0.250532
				0.24942
				0.246196
				0.247753
				0.238475
				0.251201
				0.250259
				0.248934
				0.230103
				0.247489
				0.250236
				0.246543
				0.252933
				0.249126
				0.247623
				0.254623
				0.249947
				0.250516
				0.249856
				0.250529
				0.251031
				0.196501
				0.25223
				0.250724
				0.2549
				0.250565
				0.254646
				0.252111
				0.250725
				0.249634
				0.251596
				0.242592
				0.171275
				0.187738
				0.230169
				0.2497
				0.249887
				0.250714
				0.250605
				0.235738
				0.250713
				0.249321
				0.251258
				0.249927
				0.263116
				0.249902
				0.239341
				0.250456
				0.251057
				0.2324
				0.251492
				0.267019
				0.25059
				0.259506
				0.250341
				0.260787
				0.248381
				0.250529
				0.250779
				0.25039
				0.250702
				0.249248
				0.250554
				0.245507
				0.252908
				0.250798
				0.238835
				0.24935
				0.249109
				0.245223
				0.24956
				0.250892
				0.249292
				0.251013
				0.249395
				0.249803
				0.249058
				0.249925
				0.24663
				0.250231
				0.250145
				0.249993
				0.217699
				0.248808
				0.242498
				0.256297
				0.252785
				0.249557
				0.249438
				0.253115
				0.249533
				0.250107
				0.249816
				0.250737
				0.252217
				0.249508
				0.250203
				0.250451
				0.25048
				0.247278
				0.249495
				0.250523
				0.249893
				0.248703
				0.250706
				0.250512
				0.25
				0.250657
				0.250241
				0.250322
				0.24909
				0.256642
				0.250699
				0.251603
				0.250311
				0.252767
				0.250299
				0.250771
				0.245008
				0.249916
				0.249501
				0.249611
				0.250148
				0.251672
				0.249839
				0.250623
				0.250399
				0.250647
				0.249775
				0.25021
				0.250026
				0.251306
				0.245579
				0.250083
				0.248991
				0.246436
				0.250022
				0.250958
				0.251532
				0.254721
				0.234515
				0.248087
				0.249256
				0.226553
				0.246401
				0.248881
				0.250434
				0.229391
				0.242249
				0.245585
				0.247165
				0.233084
				0.249227
				0.248908
				0.25043
				0.254396
				0.247691
				0.243494
				0.250906
				0.25064
				0.250704
				0.222818
				0.247757
				0.200367
				0.240316
				0.251243
				0.261183
				0.251002
				0.24879
				0.250308
				0.250583
				0.259409
				0.250694
				0.250231
				0.252878
				0.249571
				0.248445
				0.251197
				0.251091
				0.250565
				0.25135
				0.249836
				0.249105
				0.254618
				0.232537
				0.250663
				0.247953
				0.247829
				0.250697
				0.249347
				0.248402
				0.265935
				0.249975
				0.226472
				0.214037
				0.250486
				0.251053
				0.250559
				0.245171
				0.249321
				0.249342
				0.250638
				0.250934
				0.250873
				0.249911
				0.25702
				0.248616
				0.250294
				0.250091
				0.252077
				0.249349
				0.250365
				0.249824
				0.250503
				0.237941
				0.25061
				0.249228
				0.256677
				0.25531
				0.248512
				0.251381
				0.249646
				0.250185
				0.248667
				0.250422
				0.169452
				0.251115
				0.249239
				0.249578
				0.246895
				0.247325
				0.24911
				0.249245
				0.246883
				0.250698
				0.193598
				0.254991
				0.248228
				0.24921
				0.251978
				0.249424
				0.24923
				0.249388
				0.250218
				0.251108
				0.249793
				0.230884
				0.248289
				0.249293
				0.251532
				0.250012
				0.249693
				0.24819
				0.248051
				0.248331
				0.208394
				0.250467
				0.25151
				0.253184
				0.249394
				0.251005
				0.249396
				0.251286
				0.250017
				0.264191
				0.258635
				0.25491
				0.248563
				0.250151
				0.251105
				0.249516
				0.24972
				0.250223
				0.2494
				0.250566
				0.238101
				0.265453
				0.250971
				0.250866
				0.238449
				0.250557
				0.251803
				0.249643
				0.250629
				0.253876
				0.254281
				0.244411
				0.247528
				0.249865
				0.244366
				0.249783
				0.252241
				0.248843
				0.248996
				0.251041
				0.250445
				0.249893
				0.248298
				0.258664
				0.249956
				0.249968
				0.250192
				0.250482
				0.259913
				0.252139
				0.246387
				0.250285
				0.252543
				0.250568
				0.263524
				0.26299
				0.249267
				0.171304
				0.250842
				0.248776
				0.250525
				0.249833
				0.249804
				0.250479
				0.250334
				0.24914
				0.25039
				0.229316
				0.249609
				0.250695
				0.230599
				0.25734
				0.25431
				0.250091
				0.248723
				0.23709
				0.250463
				0.250046
				0.261023
				0.250377
				0.250357
				0.249401
				0.250987
				0.249531
				0.251043
				0.251144
				0.249768
				0.249378
				0.249
				0.250117
				0.253955
				0.251832
				0.248618
				0.250554
				0.250254
				0.250145
				0.248966
				0.259753
				0.256961
				0.250088
				0.249898
				0.250073
				0.250929
				0.250613
				0.251642
				0.24691
				0.228766
				0.250503
				0.246001
				0.251003
				0.25123
				0.249371
				0.253375
				0.24985
				0.250374
				0.24676
				0.250461
				0.245789
				0.250307
				0.263055
				0.24954
				0.249456
				0.249657
				0.208911
				0.25064
				0.248711
				0.251476
				0.242191
				0.25086
				0.250183
				0.250529
				0.241603
				0.25158
				0.246437
				0.250162
				0.24379
				0.259698
				0.250197
				0.249368
				0.250524
				0.249905
				0.251659
				0.250852
				0.25039
				0.249095
				0.237293
				0.250808
				0.253069
				0.248472
				0.24963
				0.249529
				0.243752
				0.249332
				0.249963
				0.250375
				0.240127
				0.250642
				0.25004
				0.250828
				0.249139
				0.242384
				0.249346
				0.212774
				0.251025
				0.261291
				0.240684
				0.246846
				0.25072
				0.259916
				0.249951
				0.250588
				0.249898
				0.250237
				0.250431
				0.250524
				0.248571
				0.249765
				0.247185
				0.250628
				0.249856
				0.251052
				0.250577
				0.25574
				0.245963
				0.251274
				0.249795
				0.250811
				0.256045
				0.249635
				0.24936
				0.247807
				0.242358
				0.250558
				0.250427
				0.250529
				0.248506
				0.249859
				0.250622
				0.249592
				0.250481
				0.249829
				0.243618
				0.2476
				0.247406
				0.248816
				0.247353
				0.249501
				0.24897
				0.251044
				0.250819
				0.250226
				0.242898
				0.24915
				0.251141
				0.25103
				0.255522
				0.249896
				0.250607
				0.250566
				0.249004
				0.25074
				0.250108
				0.18439
				0.253445
				0.24962
				0.25008
				0.249371
				0.254181
				0.250629
				0.245191
				0.248561
				0.249884
				0.221212
				0.235637
				0.238265
				0.249731
				0.250498
				0.249708
				0.250722
				0.249539
				0.246023
				0.249651
				0.249744
				0.252317
				0.250623
				0.250307
				0.244039
				0.253264
				0.246261
				0.249345
				0.249919
				0.250882
				0.250967
				0.250742
				0.252611
				0.241143
				0.251059
				0.262468
				0.249819
				0.250327
				0.182321
				0.251493
				0.250529
				0.249811
				0.250435
				0.242256
				0.250566
				0.25092
				0.250859
				0.250416
				0.2531
				0.249594
				0.249073
				0.250467
				0.249515
				0.250752
				0.250292
				0.24857
				0.250315
				0.155978
				0.243679
				0.232277
				0.248982
				0.248527
				0.230797
				0.239064
				0.250262
				0.193824
				0.248707
				0.234119
				0.249718
				0.215725
				0.249417
				0.250686
				0.25593
				0.249431
				0.250775
				0.251056
				0.249392
				0.222916
				0.250546
				0.24981
				0.235004
				0.250516
				0.250313
				0.252371
				0.249451
				0.257584
				0.250359
				0.257037
				0.250119
				0.250716
				0.251042
				0.250852
				0.267313
				0.263587
				0.250566
				0.250464
				0.249611
				0.249679
				0.250739
				0.252631
				0.256305
				0.249539
				0.249216
				0.251418
				0.249262
				0.25067
				0.250269
				0.250516
				0.250735
				0.251212
				0.249442
				0.249557
				0.259506
				0.225901
				0.250849
				0.249367
				0.250661
				0.249947
				0.249854
				0.250185
				0.25188
				0.259613
				0.249799
				0.250468
				0.250531
				0.259574
				0.252124
				0.247223
				0.250538
				0.206326
				0.247616
				0.249025
				0.263001
				0.263853
				0.238027
				0.250255
				0.200395
				0.220847
				0.25034
				0.24907
				0.250036
				0.250519
				0.249436
				0.261771
				0.250613
				0.248481
				0.250474
				0.250229
				0.251133
				0.25002
				0.249631
				0.248174
				0.250615
				0.252415
				0.24777
				0.249525
				0.24945
				0.250521
				0.251463
				0.252792
				0.240283
				0.250223
				0.249797
				0.171189
				0.243181
				0.249688
				0.250599
				0.249727
				0.245196
				0.224999
				0.250532
				0.224859
				0.249295
				0.250224
				0.250332
				0.250521
				0.249926
				0.251032
				0.250365
				0.233486
				0.250252
				0.249426
				0.15387
				0.249847
				0.221778
				0.249975
				0.24964
				0.254923
				0.236207
				0.198815
				0.250899
				0.252452
				0.256968
				0.24852
				0.240915
				0.250757
				0.248996
				0.268009
				0.251715
				0.256156
				0.26718
				0.24993
				0.24999
				0.249853
				0.250788
				0.248712
				0.246924
				0.252927
				0.249907
				0.249737
				0.250658
				0.253171
				0.249817
				0.249369
				0.259254
				0.249131
				0.260312
				0.259123
				0.254376
				0.253808
				0.250062
				0.249332
				0.25309
				0.250186
				0.245595
				0.246461
				0.244378
				0.202351
				0.249143
				0.249592
				0.253525
				0.252191
				0.250443
				0.177439
				0.250172
				0.247967
				0.249818
				0.228626
				0.225719
				0.250644
				0.251212
				0.238308
				0.250998
				0.250709
				0.243007
				0.256683
				0.227829
				0.250009
				0.249251
				0.2525
				0.255102
				0.250134
				0.250448
				0.2451
				0.251888
				0.247022
				0.249462
				0.251381
				0.254933
				0.250531
				0.24976
				0.249481
				0.201786
				0.249664
				0.239876
				0.212822
				0.252112
				0.250438
				0.250031
				0.250634
				0.259066
				0.247134
				0.249915
				0.245959
				0.24989
				0.249657
				0.251089
				0.250719
				0.250445
				0.250928
				0.251311
				0.249883
				0.248297
				0.250314
				0.251217
				0.240601
				0.233401
				0.250471
				0.262914
				0.251794
				0.254041
				0.250357
				0.25061
				0.25004
				0.24934
				0.24892
				0.250027
				0.248157
				0.247294
				0.249482
				0.25066
				0.21139
				0.249078
				0.248103
				0.250946
				0.250765
				0.250439
				0.26074
				0.252179
				0.249227
				0.250412
				0.245072
				0.247725
				0.222166
				0.25075
				0.248807
				0.250437
				0.252671
				0.210402
				0.250398
				0.250217
				0.188132
				0.250068
				0.250365
				0.250073
				0.25419
				0.265665
				0.250388
				0.252845
				0.249689
				0.250923
				0.250237
				0.249023
				0.251096
				0.249378
				0.236906
				0.248092
				0.249837
				0.250583
				0.250584
				0.250381
				0.249979
				0.255205
				0.239805
				0.247621
				0.250659
				0.266027
				0.250964
				0.259359
				0.249578
				0.251022
				0.246476
				0.251517
				0.234525
				0.24783
				0.251805
				0.251852
				0.249053
				0.248601
				0.251019
				0.247677
				0.262333
				0.250987
				0.249567
				0.250652
				0.249059
				0.249809
				0.244426
				0.24648
				0.250183
				0.248823
				0.254858
				0.249305
				0.250461
				0.241925
				0.249847
				0.251277
				0.255464
				0.249526
				0.249696
				0.249841
				0.24824
				0.263244
				0.250726
				0.25019
				0.250668
				0.251405
				0.242371
				0.250773
				0.248869
				0.250403
				0.253806
				0.251226
				0.249933
				0.258781
				0.24757
				0.25085
				0.249581
				0.249482
				0.24507
				0.244535
				0.250431
				0.251435
				0.249874
				0.251437
				0.259759
				0.250823
				0.249991
				0.249859
				0.249354
				0.249393
				0.249614
				0.183797
				0.261954
				0.250265
				0.250557
				0.249231
				0.250979
				0.250542
				0.250753
				0.223647
				0.22232
				0.249331
				0.249371
				0.250265
				0.233899
				0.249914
				0.250084
				0.24998
				0.250878
				0.257222
				0.24957
				0.249057
				0.24935
				0.250073
				0.246047
				0.249602
				0.249694
				0.249948
				0.218029
				0.238193
				0.246285
				0.249622
				0.244523
				0.248756
				0.249351
				0.234006
				0.229419
				0.25051
				0.252301
				0.250081
				0.250999
				0.231933
				0.25028
				0.250482
				0.244571
				0.230272
				0.250568
				0.240553
				0.236123
				0.25005
				0.250175
				0.250027
				0.248893
				0.251746
				0.250468
				0.231785
				0.251254
				0.246799
				0.247707
				0.249722
				0.245598
				0.247058
				0.250533
				0.242345
				0.249538
				0.251652
				0.250124
				0.244793
				0.25065
				0.250807
				0.254506
				0.247294
				0.250083
				0.249926
				0.250763
				0.248702
				0.250712
				0.243836
				0.247526
				0.262218
				0.252785
				0.249786
				0.249172
				0.249368
				0.2506
				0.251478
				0.250531
				0.250517
				0.257761
				0.247301
				0.251255
				0.248857
				0.24965
				0.251834
				0.188292
				0.251079
				0.249237
				0.248634
				0.249351
				0.250081
				0.253501
				0.250488
				0.253064
				0.25069
				0.243206
				0.250007
				0.249296
				0.250822
				0.251059
				0.250968
				0.24892
				0.249486
				0.25055
				0.249282
				0.250339
				0.24644
				0.25159
				0.251452
				0.249513
				0.250797
				0.247531
				0.249717
				0.249176
				0.240641
				0.24976
				0.250111
				0.249336
				0.257815
				0.244249
				0.250253
				0.224449
				0.257769
				0.248851
				0.250471
				0.251215
				0.250054
				0.251014
				0.25102
				0.221892
				0.251237
				0.250357
				0.249296
				0.249136
				0.247718
				0.250348
				0.22682
				0.230636
				0.250566
				0.250334
				0.264478
				0.250798
				0.250585
				0.249287
				0.250371
				0.250668
				0.25057
				0.251164
				0.25059
				0.249895
				0.24931
				0.249477
				0.252118
				0.240584
				0.187881
				0.252202
				0.249946
				0.250411
				0.246533
				0.250965
				0.249071
				0.24975
				0.199379
				0.249518
				0.250027
				0.255778
				0.250591
				0.251065
				0.237702
				0.250468
				0.250295
				0.249977
				0.250292
				0.251283
				0.250352
				0.231951
				0.249126
				0.246202
				0.23693
				0.247854
				0.241278
				0.250257
				0.256715
				0.249679
				0.245279
				0.250471
				0.250667
				0.252333
				0.250275
				0.248132
				0.248444
				0.25376
				0.253627
				0.258093
				0.247583
				0.250146
				0.250332
				0.251435
				0.252351
				0.233974
				0.250431
				0.261669
				0.206111
				0.249161
				0.250778
				0.250579
				0.248799
				0.219163
				0.248459
				0.249364
				0.253139
				0.250239
				0.250647
				0.248902
				0.251339
				0.251417
				0.249237
				0.243209
				0.248538
				0.249787
				0.252043
				0.248956
				0.250307
				0.250067
				0.249874
				0.249477
				0.250007
				0.252
				0.249812
				0.249529
				0.250605
				0.250824
				0.248661
				0.257879
				0.257966
				0.250584
				0.251771
				0.249886
				0.247788
				0.250401
				0.247945
				0.250317
				0.24813
				0.250556
				0.250726
				0.251026
				0.25118
				0.250522
				0.249287
				0.251605
				0.246027
				0.239738
				0.250539
				0.249961
				0.252665
				0.250939
				0.243578
				0.250331
				0.250504
				0.250405
				0.250605
				0.250692
				0.250706
				0.244018
				0.250204
				0.250357
				0.250217
				0.245491
				0.250256
				0.249339
				0.250922
				0.249586
				0.2531
				0.250691
				0.250874
				0.237728
				0.249538
				0.249452
				0.250293
				0.249875
				0.248345
				0.256354
				0.249575
				0.249011
				0.260942
				0.2505
				0.24997
				0.249888
				0.253473
				0.219469
				0.250556
				0.250625
				0.251149
				0.247838
				0.249806
				0.249461
				0.247686
				0.251571
				0.250505
				0.250572
				0.251067
				0.249349
				0.250324
				0.250676
				0.250617
				0.241627
				0.249395
				0.245737
				0.249207
				0.250802
				0.249757
				0.252557
				0.249554
				0.240846
				0.245164
				0.261093
				0.250729
				0.25114
				0.249793
				0.148104
				0.249661
				0.249336
				0.250914
				0.263199
				0.249715
				0.249898
				0.247173
				0.246012
				0.248248
				0.2498
				0.249831
				0.249951
				0.217386
				0.250686
				0.254418
				0.248369
				0.249943
				0.189646
				0.249778
				0.250159
				0.250746
				0.250624
				0.255599
				0.248756
				0.249905
				0.2527
				0.249503
				0.249952
				0.244024
				0.255762
				0.251753
				0.251781
				0.248007
				0.250126
				0.258201
				0.250414
				0.248651
				0.248599
				0.250523
				0.249241
				0.250294
				0.250705
				0.248989
				0.249417
				0.250485
				0.249437
				0.232695
				0.248588
				0.265962
				0.249904
				0.250882
				0.249286
				0.254084
				0.250075
				0.258159
				0.250716
				0.259508
				0.252443
				0.249179
				0.250564
				0.251193
				0.198241
				0.250036
				0.249176
				0.249941
				0.249413
				0.255632
				0.248424
				0.248574
				0.250679
				0.250528
				0.248778
				0.25015
				0.250941
				0.249344
				0.243328
				0.25023
				0.250585
				0.236706
				0.249457
				0.248465
				0.249015
				0.238929
				0.250621
				0.251237
				0.250117
				0.249078
				0.250445
				0.250225
				0.254205
				0.249397
				0.251056
				0.234195
				0.25115
				0.248393
				0.249669
				0.257578
				0.250185
				0.2497
				0.24989
				0.246828
				0.250517
				0.250893
				0.250893
				0.254788
				0.226415
				0.21644
				0.249847
				0.249176
				0.250507
				0.250188
				0.250516
				0.247963
				0.250953
				0.234863
				0.249848
				0.216402
				0.240582
				0.249912
				0.249961
				0.247781
				0.250249
				0.249433
				0.250976
				0.251183
				0.24947
				0.251775
				0.250934
				0.249234
				0.248754
				0.249767
				0.266388
				0.251703
				0.250672
				0.251314
				0.250554
				0.24999
				0.248177
				0.249211
				0.250609
				0.250314
				0.25199
				0.249004
				0.248207
				0.250272
				0.259073
				0.248906
				0.250145
				0.249395
				0.250038
				0.249587
				0.228362
				0.244676
				0.259824
				0.25143
				0.250379
				0.248075
				0.250693
				0.232068
				0.249051
				0.249236
				0.250585
				0.247482
				0.251298
				0.251531
				0.262644
				0.250343
				0.249059
				0.250959
				0.250401
				0.242389
				0.242179
				0.250865
				0.2509
				0.224378
				0.249632
				0.239709
				0.247958
				0.249388
				0.253427
				0.25235
				0.250905
				0.249675
				0.249845
				0.249513
				0.242894
				0.249364
				0.249845
				0.236148
				0.250951
				0.250266
				0.250782
				0.249384
				0.249212
				0.248796
				0.242765
				0.249183
				0.249221
				0.248165
				0.250753
				0.249297
				0.222485
				0.246042
				0.250465
				0.250765
				0.252158
				0.255682
				0.25112
				0.254212
				0.249559
				0.24969
				0.250992
				0.249657
				0.250458
				0.250223
				0.256148
				0.249375
				0.249925
				0.24957
				0.26247
				0.247108
				0.250533
				0.246649
				0.248969
				0.247006
				0.250539
				0.250396
				0.244969
				0.248402
				0.248085
				0.249365
				0.251208
				0.250083
				0.249039
				0.249904
				0.250386
				0.249761
				0.251004
				0.250129
				0.251894
				0.249577
				0.249641
				0.251623
				0.206296
				0.265253
				0.255579
				0.249224
				0.252164
				0.244635
				0.250508
				0.25105
				0.250151
				0.249393
				0.249178
				0.252079
				0.250478
				0.252547
				0.220692
				0.250592
				0.252027
				0.249837
				0.249868
				0.251255
				0.251941
				0.229435
				0.16635
				0.250784
				0.249742
				0.24998
				0.249358
				0.253643
				0.250639
				0.249825
				0.250441
				0.252494
				0.248996
				0.253894
				0.249542
				0.25091
				0.248057
				0.25049
				0.25044
				0.250254
				0.250643
				0.187037
				0.248403
				0.249774
				0.24627
				0.250106
				0.248058
				0.25101
				0.238161
				0.250605
				0.260138
				0.249926
				0.250258
				0.250622
				0.248714
				0.261591
				0.251936
				0.240435
				0.250502
				0.25067
				0.252875
				0.250675
				0.255937
				0.241528
				0.236821
				0.249269
				0.253108
				0.248672
				0.249616
				0.249703
				0.255668
				0.249272
				0.242111
				0.249238
				0.249136
				0.248882
				0.248919
				0.249405
				0.24985
				0.25112
				0.250155
				0.243812
				0.251001
				0.253063
				0.246918
				0.248644
				0.250443
				0.2511
				0.2519
				0.248396
				0.250655
				0.259421
				0.250083
				0.254122
				0.257742
				0.257329
				0.24872
				0.249243
				0.250372
				0.246041
				0.247896
				0.251938
				0.249848
				0.250394
				0.250493
				0.255499
				0.22405
				0.250167
				0.253414
				0.248042
				0.251178
				0.244426
				0.250529
				0.263783
				0.250461
				0.250554
				0.25086
				0.25086
				0.249043
				0.225933
				0.250479
				0.247539
				0.255967
				0.249269
				0.250581
				0.25057
				0.249467
				0.250584
				0.249657
				0.250662
				0.250635
				0.251085
				0.263013
				0.155247
				0.250511
				0.24851
				0.256007
				0.248429
				0.251232
				0.250598
				0.249533
				0.249671
				0.248324
				0.246917
				0.246157
				0.250922
				0.249998
				0.26085
				0.250834
				0.24533
				0.249912
				0.249406
				0.251013
				0.249947
				0.250507
				0.250743
				0.262971
				0.253262
				0.251051
				0.264532
				0.251698
				0.250603
				0.252901
				0.249077
				0.220702
				0.250592
				0.250197
				0.263169
				0.24983
				0.250461
				0.250852
				0.248858
				0.250062
				0.251167
				0.250204
				0.204387
				0.250607
				0.258423
				0.251279
				0.258739
				0.250798
				0.252133
				0.229904
				0.251349
				0.246748
				0.250925
				0.246758
				0.246493
				0.250014
				0.250234
				0.253777
				0.250382
				0.209089
				0.250013
				0.250502
				0.252847
				0.250816
				0.249475
				0.250908
				0.250088
				0.250436
				0.249362
				0.244469
				0.249853
				0.249621
				0.249958
				0.250187
				0.249909
			</DataArray>
			<DataArray type="Float64" Name="mach-number" Format="ascii">
				0.0946416
				1.19459
				0.105371
				0.660567
				0.379448
				0.37816
				0.165701
				0.223596
				0.295035
				0.358307
				0.431742
				0.496215
				0.572076
				0.65341
				0.724117
				0.792032
				0.882164
				0.955009
				0.96785
				1.16644
				1.22208
				1.17891
				1.10194
				0.988749
				0.927723
				0.869626
				0.78089
				0.708494
				0.642671
				0.57018
				0.501052
				0.429356
				0.367477
				0.29003
				0.22892
				0.162165
				0.0497595
				0.0420418
				0.0953229
				0.162457
				0.218061
				0.283338
				0.345148
				0.392562
				0.454685
				0.497172
				0.54228
				0.580244
				0.608861
				0.647011
				0.658832
				0.655232
				0.634072
				0.604309
				0.565275
				0.515159
				0.460555
				0.409677
				0.346567
				0.291603
				0.231919
				0.16418
				0.114854
				0.059238
				0.0220792
				0.0431153
				0.379278
				0.379048
				0.378914
				0.378748
				0.378671
				0.378362
				0.37822
				0.378427
				0.378404
				0.378476
				0.378423
				0.37861
				0.378751
				0.378753
				0.37891
				0.379205
				0.379531
				0.379869
				0.37993
				0.379923
				0.380219
				0.380085
				0.379872
				0.379628
				0.379495
				0.37959
				0.379645
				0.379841
				0.38005
				0.379922
				0.378559
				0.379522
				0.380749
				0.380976
				0.381021
				0.380997
				0.380983
				0.380947
				0.380837
				0.380938
				0.380768
				0.380266
				0.379705
				0.380475
				0.38063
				0.380992
				0.381064
				0.381262
				0.38145
				0.381577
				0.38164
				0.381697
				0.381531
				0.381523
				0.381312
				0.381026
				0.380851
				0.380629
				0.380431
				0.380163
				0.37994
				0.379706
				0.378497
				0.385628
				0.374861
				0.374879
				0.388513
				0.381103
				0.375302
				0.372433
				0.3708
				0.380911
				0.398033
				0.392385
				0.3734
				0.368656
				0.367878
				0.38915
				0.363569
				0.42685
				0.399671
				0.360822
				0.357261
				0.370873
				0.359144
				0.341326
				0.450908
				0.403999
				0.494247
				0.399494
				0.368532
				0.312226
				0.321909
				0.37856
				0.341833
				0.298189
				0.450908
				0.540678
				0.325222
				0.376808
				0.381686
				0.374617
				0.385161
				0.494989
				0.356084
				0.38926
				0.600595
				0.379105
				0.400094
				0.421258
				0.357058
				0.402239
				0.687656
				0.377113
				0.414429
				0.24245
				0.278915
				0.384338
				0.263035
				0.226456
				0.37556
				0.389596
				0.383303
				0.370284
				0.372679
				0.385462
				0.384149
				0.382412
				0.384496
				0.376818
				0.382196
				0.376841
				0.380147
				0.255348
				0.549897
				0.37982
				0.425066
				0.376116
				0.38942
				0.401944
				0.374704
				0.372015
				0.377201
				0.378554
				0.364643
				0.702374
				0.383824
				0.377029
				0.379196
				0.373175
				0.392253
				0.373022
				0.36807
				0.386634
				0.373901
				0.251593
				0.36699
				0.39411
				0.478869
				0.368912
				0.352189
				0.375661
				0.377668
				0.464753
				0.341674
				0.388274
				0.478719
				0.451592
				0.445435
				0.176392
				0.370169
				0.784102
				0.383553
				0.362282
				0.373189
				0.35684
				0.371274
				0.349789
				0.381265
				0.303941
				0.384136
				0.398402
				0.380223
				0.408131
				0.378596
				0.454883