<VTKFile type="UnstructuredGrid" version="0.1" byte_order="LittleEndian">
<UnstructuredGrid>
	<Piece NumberOfPoints="80" NumberOfCells="128">
		<CellData Scalars="density" Vectors="velocity">
			<DataArray type="Float64" Name="density" Format="ascii">
				0.990893
				0.957164
				0.977206
				0.979227
				0.922162
				0.980873
				0.856912
				0.947225
				0.852474
				0.921286
				0.931164
				0.945376
				1.02105
				0.993528
				1.07561
				1.03172
				1.07558
				1.04653
				1.02086
				1.03163
				0.930721
				0.99331
				0.851539
				0.944921
				0.855676
				0.920489
				0.921305
				0.94633
				0.978723
				0.97993
				0.910622
				0.973532
				0.986292
				0.932568
				0.99745
				1.00191
				0.992955
				0.988092
				0.988533
				0.980543
				0.991068
				0.978223
				0.999764
				0.989149
				1.00885
				1.0064
				1.01425
				1.01854
				1.01423
				1.01765
				1.0088
				1.0185
				0.999674
				1.00631
				0.990953
				0.988992
				0.988431
				0.978033
				0.992923
				0.980428
				0.997331
				0.988095
				0.986753
				1.00475
				0.994406
				0.997824
				1.0005
				0.999879
				0.997912
				0.999976
				0.996346
				0.998709
				0.997446
				0.998234
				1.00058
				0.999112
				1.0037
				1.00075
				1.00554
				1.00193
				1.00554
				1.00208
				1.00368
				1.00193
				1.00056
				1.00074
				0.997436
				0.999108
				0.996366
				0.99825
				0.997974
				0.998767
				1.00046
				1.00012
				0.99428
				0.999806
				0.997643
				0.989659
				0.99909
				1.00117
				0.999532
				0.998689
				0.999787
				0.999146
				1.00018
				0.999773
				1.00061
				1.00051
				1.00095
				1.00111
				1.00115
				1.00139
				1.00115
				1.00133
				1.00096
				1.00139
				1.00063
				1.00111
				1.0002
				1.00053
				0.999816
				0.999804
				0.999572
				0.999194
				0.999116
				0.998763
				0.997184
				1.00165
			</DataArray>
			<DataArray type="Float64" Name="mach-number" Format="ascii">
				0.0821199
				0.0734621
				0.262895
				0.210708
				0.456586
				0.367566
				0.619344
				0.502186
				0.648637
				0.565335
				0.518752
				0.518505
				0.33266
				0.404169
				0.15118
				0.282609
				0.151508
				0.247527
				0.333181
				0.28292
				0.519623
				0.404671
				0.650297
				0.519308
				0.621611
				0.5666
				0.458806
				0.503669
				0.26527
				0.368878
				0.096327
				0.216267
				0.301504
				0.153564
				0.385493
				0.360251
				0.407894
				0.40386
				0.416742
				0.432388
				0.4087
				0.439132
				0.383298
				0.413319
				0.356766
				0.367937
				0.343068
				0.332752
				0.343138
				0.337452
				0.35694
				0.332903
				0.383569
				0.368235
				0.409033
				0.413771
				0.417009
				0.439644
				0.407929
				0.432715
				0.385424
				0.403775
				0.301474
				0.361512
				0.334333
				0.322026
				0.380108
				0.376924
				0.385886
				0.382335
				0.389943
				0.385055
				0.387757
				0.385879
				0.379771
				0.382355
				0.371251
				0.377241
				0.365569
				0.373762
				0.365598
				0.375248
				0.371309
				0.373778
				0.379841
				0.377263
				0.387802
				0.382367
				0.389897
				0.385849
				0.385682
				0.38493
				0.379727
				0.38206
				0.337597
				0.376643
				0.376366
				0.32578
				0.38358
				0.396762
				0.382703
				0.384094
				0.381905
				0.383464
				0.38072
				0.381994
				0.379546
				0.380289
				0.378736
				0.378985
				0.378401
				0.378552
				0.378396
				0.379732
				0.378721
				0.378549
				0.379517
				0.37897
				0.380672
				0.380251
				0.381834
				0.381922
				0.382609
				0.383346
				0.383521
				0.383871
				0.375023
				0.397759
			</DataArray>
			<DataArray type="Float64" Name="pressure" Format="ascii">
				5.03086
				5.00441
				4.88422
				4.96462
				4.49276
				4.88215
				4.04192
				4.61814
				3.99463
				4.44263
				4.49047
				4.60564
				5.08361
				4.92874
				5.46731
				5.17841
				5.46694
				5.24984
				5.08228
				5.1778
				4.48749
				4.92732
				3.98861
				4.60277
				4.03389
				4.43771
				4.4861
				4.61283
				4.88052
				4.87895
				5.05354
				4.95329
				4.95506
				4.95567
				4.93372
				4.9437
				4.89241
				4.871
				4.8609
				4.81197
				4.87907
				4.79485
				4.94184
				4.86941
				5.00712
				4.98905
				5.04649
				5.07473
				5.04637
				5.08773
				5.00675
				5.07445
				4.94121
				4.9884
				4.87824
				4.86832
				4.86014
				4.79359
				4.89219
				4.81134
				4.93415
				4.87162
				4.9506
				4.94614
				4.95618
				4.97332
				4.94944
				4.95215
				4.93148
				4.94577
				4.9211
				4.93809
				4.92887
				4.93496
				4.9506
				4.94086
				4.97222
				4.9519
				4.98504
				4.95985
				4.985
				4.96088
				4.97212
				4.95983
				4.95047
				4.95185
				4.9288
				4.94083
				4.92124
				4.93507
				4.93195
				4.93847
				4.94967
				4.94661
				4.95194
				4.95347
				4.93843
				4.93438
				4.94035
				4.94237
				4.94337
				4.93719
				4.94507
				4.94066
				4.94776
				4.94502
				4.95082
				4.95013
				4.95316
				4.95424
				4.95456
				4.95621
				4.95458
				4.95591
				4.9532
				4.95623
				4.95089
				4.9543
				4.94789
				4.95025
				4.94527
				4.94524
				4.94366
				4.94099
				4.94052
				4.93763
				4.93787
				4.94343
			</DataArray>
			<DataArray type="Float64" Name="velocity" NumberOfComponents="3" Format="ascii">
				0.212243 -0.0537278 0.0 
				0.19848 0.0103987 0.0 
				0.605259 -0.34246 0.0 
				0.541831 -0.146797 0.0 
				1.12615 -0.392077 0.0 
				0.94034 -0.239187 0.0 
				1.58696 -0.120864 0.0 
				1.30317 -0.15203 0.0 
				1.61868 0.374154 0.0 
				1.46419 0.117511 0.0 
				1.16434 0.679064 0.0 
				1.29329 0.401327 0.0 
				0.635697 0.606012 0.0 
				0.953079 0.475553 0.0 
				0.319228 0.246448 0.0 
				0.680413 0.313458 0.0 
				0.319497 -0.247516 0.0 
				0.65597 -0.000447017 0.0 
				0.636442 -0.607167 0.0 
				0.680895 -0.314355 0.0 
				1.16609 -0.680307 0.0 
				0.954127 -0.476337 0.0 
				1.62252 -0.374899 0.0 
				1.29529 -0.401639 0.0 
				1.59227 0.122123 0.0 
				1.46739 -0.116503 0.0 
				1.13077 0.395411 0.0 
				1.3066 0.154841 0.0 
				0.608678 0.347522 0.0 
				0.94303 0.243237 0.0 
				0.260482 0.0651172 0.0 
				0.560275 0.138751 0.0 
				0.797139 -0.0628462 0.0 
				0.418829 0.00458085 0.0 
				1.01255 -0.0617123 0.0 
				0.943596 -0.0784544 0.0 
				1.07013 -0.0499588 0.0 
				1.05782 -0.0817231 0.0 
				1.09343 -0.00362411 0.0 
				1.13265 -0.0400855 0.0 
				1.07112 0.0628666 0.0 
				1.14945 0.0452447 0.0 
				1.00399 0.0933267 0.0 
				1.07702 0.131946 0.0 
				0.937765 0.0708116 0.0 
				0.958643 0.143373 0.0 
				0.905226 0.0203397 0.0 
				0.875144 0.0803334 0.0 
				0.9054 -0.0206505 0.0 
				0.892768 -0.000275681 0.0 
				0.938199 -0.0710357 0.0 
				0.875489 -0.0808592 0.0 
				1.00468 -0.0933406 0.0 
				0.959359 -0.143776 0.0 
				1.07199 -0.0624386 0.0 
				1.07818 -0.131929 0.0 
				1.0941 0.00477218 0.0 
				1.15079 -0.0442852 0.0 
				1.07013 0.0516702 0.0 
				1.13342 0.0421243 0.0 
				1.01238 0.0631734 0.0 
				1.05745 0.0844018 0.0 
				0.796155 0.0671933 0.0 
				0.945573 0.0812051 0.0 
				0.883146 0.00322726 0.0 
				0.850647 0.00198073 0.0 
				1.00029 -0.00854882 0.0 
				0.992503 0.00657103 0.0 
				1.01498 -0.00694658 0.0 
				1.00607 0.00367561 0.0 
				1.02537 0.007226 0.0 
				1.01305 0.00846086 0.0 
				1.01953 0.0268784 0.0 
				1.015 0.0187325 0.0 
				0.99888 0.0356352 0.0 
				1.00575 0.0248904 0.0 
				0.97727 0.0290051 0.0 
				0.992649 0.0224203 0.0 
				0.96302 0.011822 0.0 
				0.983864 0.0133378 0.0 
				0.963094 -0.0118421 0.0 
				0.987894 4.70945e-06 0.0 
				0.977421 -0.0289526 0.0 
				0.983904 -0.013304 0.0 
				0.999067 -0.0354447 0.0 
				0.992708 -0.0223279 0.0 
				1.01966 -0.0264854 0.0 
				1.00579 -0.0247066 0.0 
				1.02526 -0.00661323 0.0 
				1.01493 -0.0184467 0.0 
				1.01445 0.00764641 0.0 
				1.01274 -0.00806855 0.0 
				0.999323 0.00923579 0.0 
				1.00536 -0.00304141 0.0 
				0.89143 -0.00546788 0.0 
				0.991942 -0.00481748 0.0 
				0.990753 -0.00841401 0.0 
				0.86072 -8.59368e-05 0.0 
				1.00924 -0.00277115 0.0 
				1.04305 0.00439937 0.0 
				1.00702 -0.000625252 0.0 
				1.01048 0.000310704 0.0 
				1.00497 0.00151107 0.0 
				1.00893 0.0038589 0.0 
				1.00192 0.00277431 0.0 
				1.00519 0.00561055 0.0 
				0.998922 0.00280749 0.0 
				1.00085 0.00549201 0.0 
				0.996862 0.00171263 0.0 
				0.997543 0.00377813 0.0 
				0.996022 0.000284597 0.0 
				0.996467 0.00140222 0.0 
				0.996009 -0.000235753 0.0 
				0.999572 3.49205e-05 0.0 
				0.996823 -0.0016652 0.0 
				0.996458 -0.00132324 0.0 
				0.998848 -0.00276542 0.0 
				0.997505 -0.00368069 0.0 
				1.0018 -0.00275064 0.0 
				1.00075 -0.00537718 0.0 
				1.00479 -0.00153657 0.0 
				1.00501 -0.00550213 0.0 
				1.00678 0.000501082 0.0 
				1.00864 -0.00379185 0.0 
				1.00909 0.00245466 0.0 
				1.0099 -0.00021427 0.0 
				0.987381 0.00929642 0.0 
				1.04553 -0.00510986 0.0 
			</DataArray>
		</CellData>
		<Points>
		<DataArray type="Float64" NumberOfComponents="3" Format="ascii">
			0.5 0 0.0 
			0.46194 0.191342 0.0 
			0.353553 0.353553 0.0 
			0.191342 0.46194 0.0 
			-2.18557e-08 0.5 0.0 
			-0.191342 0.46194 0.0 
			-0.353553 0.353553 0.0 
			-0.46194 0.191342 0.0 
			-0.5 -4.37114e-08 0.0 
			-0.46194 -0.191342 0.0 
			-0.353553 -0.353553 0.0 
			-0.191342 -0.46194 0.0 
			6.55671e-08 -0.5 0.0 
			0.191342 -0.46194 0.0 
			0.353553 -0.353553 0.0 
			0.46194 -0.191342 0.0 
			0.884503 0.175939 0.0 
			0.749846 0.501031 0.0 
			0.501031 0.749846 0.0 
			0.175939 0.884503 0.0 
			-0.175939 0.884503 0.0 
			-0.501031 0.749846 0.0 
			-0.749846 0.501031 0.0 
			-0.884503 0.175939 0.0 
			-0.884503 -0.175939 0.0 
			-0.749846 -0.501031 0.0 
			-0.501031 -0.749846 0.0 
			-0.175939 -0.884503 0.0 
			0.175939 -0.884503 0.0 
			0.501031 -0.749846 0.0 
			0.749846 -0.501031 0.0 
			0.884503 -0.175938 0.0 
			2.20148 0 0.0 
			2.0339 0.842468 0.0 
			1.55668 1.55668 0.0 
			0.842468 2.0339 0.0 
			-9.62295e-08 2.20148 0.0 
			-0.842468 2.0339 0.0 
			-1.55668 1.55668 0.0 
			-2.0339 0.842468 0.0 
			-2.20148 -1.92459e-07 0.0 
			-2.0339 -0.842468 0.0 
			-1.55668 -1.55668 0.0 
			-0.842468 -2.0339 0.0 
			2.88689e-07 -2.20148 0.0 
			0.842468 -2.0339 0.0 
			1.55668 -1.55668 0.0 
			2.0339 -0.842468 0.0 
			6.28184 1.24954 0.0 
			5.32549 3.55838 0.0 
			3.55838 5.32549 0.0 
			1.24954 6.28184 0.0 
			-1.24954 6.28184 0.0 
			-3.55838 5.32549 0.0 
			-5.32549 3.55838 0.0 
			-6.28184 1.24954 0.0 
			-6.28184 -1.24954 0.0 
			-5.32549 -3.55838 0.0 
			-3.55838 -5.32549 0.0 
			-1.24954 -6.28184 0.0 
			1.24954 -6.28184 0.0 
			3.55838 -5.32549 0.0 
			5.32549 -3.55838 0.0 
			6.28184 -1.24953 0.0 
			20.0001 0 0.0 
			18.4777 7.6537 0.0 
			14.1422 14.1422 0.0 
			7.6537 18.4777 0.0 
			-8.74231e-07 20.0001 0.0 
			-7.6537 18.4777 0.0 
			-14.1422 14.1422 0.0 
			-18.4777 7.65369 0.0 
			-20.0001 -1.74846e-06 0.0 
			-18.4777 -7.6537 0.0 
			-14.1422 -14.1422 0.0 
			-7.65369 -18.4777 0.0 
			2.62269e-06 -20.0001 0.0 
			7.6537 -18.4777 0.0 
			14.1422 -14.1422 0.0 
			18.4777 -7.65369 0.0 
		</DataArray>
		</Points>
		<Cells>
			<DataArray type="UInt32" Name="connectivity" Format="ascii">
				0 16 1 
				0 31 16 
				1 17 2 
				1 16 17 
				2 18 3 
				2 17 18 
				3 19 4 
				3 18 19 
				4 20 5 
				4 19 20 
				5 21 6 
				5 20 21 
				6 22 7 
				6 21 22 
				7 23 8 
				7 22 23 
				8 24 9 
				8 23 24 
				9 25 10 
				9 24 25 
				10 26 11 
				10 25 26 
				11 27 12 
				11 26 27 
				12 28 13 
				12 27 28 
				13 29 14 
				13 28 29 
				14 30 15 
				14 29 30 
				15 31 0 
				15 30 31 
				16 32 33 
				16 31 32 
				17 33 34 
				17 16 33 
				18 34 35 
				18 17 34 
				19 35 36 
				19 18 35 
				20 36 37 
				20 19 36 
				21 37 38 
				21 20 37 
				22 38 39 
				22 21 38 
				23 39 40 
				23 22 39 
				24 40 41 
				24 23 40 
				25 41 42 
				25 24 41 
				26 42 43 
				26 25 42 
				27 43 44 
				27 26 43 
				28 44 45 
				28 27 44 
				29 45 46 
				29 28 45 
				30 46 47 
				30 29 46 
				31 47 32 
				31 30 47 
				32 48 33 
				32 63 48 
				33 49 34 
				33 48 49 
				34 50 35 
				34 49 50 
				35 51 36 
				35 50 51 
				36 52 37 
				36 51 52 
				37 53 38 
				37 52 53 
				38 54 39 
				38 53 54 
				39 55 40 
				39 54 55 
				40 56 41 
				40 55 56 
				41 57 42 
				41 56 57 
				42 58 43 
				42 57 58 
				43 59 44 
				43 58 59 
				44 60 45 
				44 59 60 
				45 61 46 
				45 60 61 
				46 62 47 
				46 61 62 
				47 63 32 
				47 62 63 
				48 64 65 
				48 63 64 
				49 65 66 
				49 48 65 
				50 66 67 
				50 49 66 
				51 67 68 
				51 50 67 
				52 68 69 
				52 51 68 
				53 69 70 
				53 52 69 
				54 70 71 
				54 53 70 
				55 71 72 
				55 54 71 
				56 72 73 
				56 55 72 
				57 73 74 
				57 56 73 
				58 74 75 
				58 57 74 
				59 75 76 
				59 58 75 
				60 76 77 
				60 59 76 
				61 77 78 
				61 60 77 
				62 78 79 
				62 61 78 
				63 79 64 
				63 62 79 
			</DataArray>
			<DataArray type="UInt32" Name="offsets" Format="ascii">
				3
				6
				9
				12
				15
				18
				21
				24
				27
				30
				33
				36
				39
				42
				45
				48
				51
				54
				57
				60
				63
				66
				69
				72
				75
				78
				81
				84
				87
				90
				93
				96
				99
				102
				105
				108
				111
				114
				117
				120
				123
				126
				129
				132
				135
				138
				141
				144
				147
				150
				153
				156
				159
				162
				165
				168
				171
				174
				177
				180
				183
				186
				189
				192
				195
				198
				201
				204
				207
				210
				213
				216
				219
				222
				225
				228
				231
				234
				237
				240
				243
				246
				249
				252
				255
				258
				261
				264
				267
				270
				273
				276
				279
				282
				285
				288
				291
				294
				297
				300
				303
				306
				309
				312
				315
				318
				321
				324
				327
				330
				333
				336
				339
				342
				345
				348
				351
				354
				357
				360
				363
				366
				369
				372
				375
				378
				381
				384
			</DataArray>
			<DataArray type="Int32" Name="types" Format="ascii">
				5
				5
				5
				5
				5
				5
				5
				5
				5
				5
				5
				5
				5
				5
				5
				5
				5
				5
				5
				5
				5
				5
				5
				5
				5
				5
				5
				5
				5
				5
				5
				5
				5
				5
				5
				5
				5
				5
				5
				5
				5
				5
				5
				5
				5
				5
				5
				5
				5
				5
				5
				5
				5
				5
				5
				5
				5
				5
				5
				5
				5
				5
				5
				5
				5
				5
				5
				5
				5
				5
				5
				5
				5
				5
				5
				5
				5
				5
				5
				5
				5
				5
				5
				5
				5
				5
				5
				5
				5
				5
				5
				5
				5
				5
				5
				5
				5
				5
				5
				5
				5
				5
				5
				5
				5
				5
				5
				5
				5
				5
				5
				5
				5
				5
				5
				5
				5
				5
				5
				5
				5
				5
				5
				5
				5
				5
				5
				5
			</DataArray>
		</Cells>
	</Piece>
</UnstructuredGrid>
</VTKFile>