<VTKFile type="UnstructuredGrid" version="0.1" byte_order="LittleEndian">
<UnstructuredGrid>
	<Piece NumberOfPoints="80" NumberOfCells="128">
		<CellData Scalars="density" Vectors="velocity">
			<DataArray type="Float64" Name="density" Format="ascii">
				0.953132
				0.942802
				0.943239
				0.962317
				0.904898
				0.949588
				0.882612
				0.92935
				0.900914
				0.925873
				0.97012
				0.958965
				1.02802
				1.00575
				1.05073
				1.03986
				1.05073
				1.04232
				1.02802
				1.03986
				0.97012
				1.00575
				0.900914
				0.958965
				0.882612
				0.925873
				0.904898
				0.92935
				0.943239
				0.949588
				0.953132
				0.962317
				0.981891
				0.959526
				0.991341
				0.979755
				0.98766
				0.980555
				0.984563
				0.975736
				0.988897
				0.973658
				1.00003
				0.988123
				1.01149
				1.00421
				1.01753
				1.01758
				1.01753
				1.02227
				1.01149
				1.01758
				1.00003
				1.00421
				0.988897
				0.988123
				0.984563
				0.973658
				0.98766
				0.975736
				0.991341
				0.980555
				0.981891
				0.979755
				0.989632
				0.993794
				0.996926
				0.999086
				0.995802
				0.997799
				0.994352
				0.997638
				0.996938
				0.997474
				1.00055
				0.998921
				1.00371
				1.00184
				1.00511
				1.00328
				1.00511
				1.00416
				1.00371
				1.00328
				1.00055
				1.00184
				0.996938
				0.998921
				0.994352
				0.997474
				0.995802
				0.997638
				0.996926
				0.997799
				0.989632
				0.999086
				0.993509
				0.984612
				0.998844
				0.999816
				0.999357
				0.998139
				0.999765
				0.998555
				1.00051
				0.99924
				1.00135
				1.00045
				1.00198
				1.0017
				1.00227
				1.00241
				1.00227
				1.0027
				1.00198
				1.00241
				1.00135
				1.0017
				1.00051
				1.00045
				0.999765
				0.99924
				0.999357
				0.998555
				0.998844
				0.998139
				0.993509
				0.999816
			</DataArray>
			<DataArray type="Float64" Name="mach-number" Format="ascii">
				0.0298417
				0.0147456
				0.256042
				0.246964
				0.458126
				0.384564
				0.567666
				0.508272
				0.562192
				0.553559
				0.449035
				0.497099
				0.287938
				0.38492
				0.114849
				0.269382
				0.114849
				0.170904
				0.287938
				0.269382
				0.449035
				0.38492
				0.562192
				0.497099
				0.567666
				0.553559
				0.458126
				0.508272
				0.256042
				0.384564
				0.0298412
				0.246964
				0.289752
				0.0832264
				0.366693
				0.313498
				0.401842
				0.379208
				0.419415
				0.421278
				0.415277
				0.435099
				0.389014
				0.409957
				0.358494
				0.361748
				0.339134
				0.310135
				0.339134
				0.248105
				0.358494
				0.310135
				0.389014
				0.361748
				0.415277
				0.409957
				0.419415
				0.435099
				0.401842
				0.421278
				0.366693
				0.379208
				0.289751
				0.313497
				0.306286
				0.301323
				0.369516
				0.372927
				0.384535
				0.382113
				0.391313
				0.386841
				0.386995
				0.386926
				0.377905
				0.382428
				0.366865
				0.375984
				0.357364
				0.372028
				0.357364
				0.370083
				0.366865
				0.372028
				0.377905
				0.375984
				0.386995
				0.382428
				0.391313
				0.386926
				0.384535
				0.386841
				0.369516
				0.382113
				0.306286
				0.372927
				0.366182
				0.316442
				0.38332
				0.382163
				0.384207
				0.385601
				0.383146
				0.385573
				0.38124
				0.383615
				0.378962
				0.380365
				0.377268
				0.3771
				0.376429
				0.375145
				0.376429
				0.373951
				0.377268
				0.375145
				0.378962
				0.3771
				0.38124
				0.380365
				0.383146
				0.383615
				0.384207
				0.385573
				0.38332
				0.385601
				0.366182
				0.382163
			</DataArray>
			<DataArray type="Float64" Name="pressure" Format="ascii">
				4.86139
				4.80023
				4.73107
				4.86356
				4.39655
				4.70822
				4.20762
				4.52131
				4.30191
				4.48186
				4.75662
				4.70009
				5.171
				5.01701
				5.34028
				5.2451
				5.34028
				5.26997
				5.171
				5.2451
				4.75662
				5.01701
				4.30191
				4.70009
				4.20762
				4.48186
				4.39655
				4.52131
				4.73108
				4.70822
				4.86138
				4.86356
				4.91498
				4.82394
				4.91729
				4.89267
				4.87171
				4.84651
				4.84198
				4.79357
				4.87206
				4.77319
				4.94799
				4.86578
				5.02633
				4.97781
				5.06507
				5.07217
				5.06507
				5.12452
				5.02633
				5.07217
				4.94799
				4.97781
				4.87206
				4.86578
				4.84198
				4.77319
				4.87171
				4.79357
				4.91729
				4.84651
				4.91498
				4.89267
				4.96232
				4.96081
				4.94322
				4.96397
				4.92552
				4.93728
				4.91211
				4.9327
				4.92934
				4.92628
				4.94935
				4.93779
				4.9725
				4.95947
				4.98553
				4.97145
				4.98553
				4.97714
				4.9725
				4.97145
				4.94935
				4.95947
				4.92934
				4.93779
				4.91211
				4.92628
				4.92552
				4.9327
				4.94322
				4.93728
				4.96232
				4.96397
				4.92733
				4.92557
				4.93968
				4.93071
				4.94172
				4.93431
				4.94488
				4.93659
				4.9501
				4.94113
				4.95588
				4.94956
				4.96022
				4.95826
				4.96226
				4.96326
				4.96226
				4.96503
				4.96022
				4.96326
				4.95588
				4.95826
				4.9501
				4.94956
				4.94488
				4.94113
				4.94172
				4.93659
				4.93968
				4.93431
				4.92733
				4.93071
			</DataArray>
			<DataArray type="Float64" Name="velocity" NumberOfComponents="3" Format="ascii">
				0.0760591 0.0239563 0.0 
				-0.0393684 -9.75523e-07 0.0 
				0.600915 -0.31504 0.0 
				0.655208 -0.0474561 0.0 
				1.1234 -0.406935 0.0 
				0.983349 -0.244116 0.0 
				1.46373 -0.0905413 0.0 
				1.31613 -0.165412 0.0 
				1.41778 0.320609 0.0 
				1.43837 0.0879815 0.0 
				1.03854 0.552729 0.0 
				1.25382 0.351438 0.0 
				0.596934 0.476991 0.0 
				0.934048 0.402835 0.0 
				0.259061 0.16353 0.0 
				0.675519 0.236884 0.0 
				0.259061 -0.16353 0.0 
				0.454693 -1.67774e-08 0.0 
				0.596934 -0.476991 0.0 
				0.675519 -0.236884 0.0 
				1.03854 -0.552729 0.0 
				0.934048 -0.402835 0.0 
				1.41778 -0.320609 0.0 
				1.25382 -0.351438 0.0 
				1.46373 0.0905413 0.0 
				1.43837 -0.0879815 0.0 
				1.1234 0.406935 0.0 
				1.31613 0.165412 0.0 
				0.600915 0.31504 0.0 
				0.983348 0.244115 0.0 
				0.0760572 -0.0239577 0.0 
				0.655208 0.0474557 0.0 
				0.761536 -0.0917403 0.0 
				0.220799 -2.96612e-07 0.0 
				0.963357 -0.0755197 0.0 
				0.822675 -0.101557 0.0 
				1.05487 -0.0485127 0.0 
				0.990823 -0.115361 0.0 
				1.10047 0.0107529 0.0 
				1.10371 -0.0498225 0.0 
				1.08707 0.0882169 0.0 
				1.13851 0.0556323 0.0 
				1.0159 0.127376 0.0 
				1.06324 0.167795 0.0 
				0.939557 0.1064 0.0 
				0.933929 0.18952 0.0 
				0.893839 0.0506193 0.0 
				0.808926 0.129779 0.0 
				0.893839 -0.0506193 0.0 
				0.657271 -1.32532e-10 0.0 
				0.939557 -0.1064 0.0 
				0.808926 -0.129778 0.0 
				1.0159 -0.127376 0.0 
				0.933929 -0.18952 0.0 
				1.08707 -0.0882169 0.0 
				1.06324 -0.167795 0.0 
				1.10047 -0.010753 0.0 
				1.13851 -0.0556323 0.0 
				1.05487 0.0485127 0.0 
				1.10371 0.0498225 0.0 
				0.963357 0.0755197 0.0 
				0.990823 0.115361 0.0 
				0.761535 0.0917405 0.0 
				0.822675 0.101557 0.0 
				0.811509 -0.00333291 0.0 
				0.79657 -1.41572e-07 0.0 
				0.973537 -0.00905539 0.0 
				0.983529 0.00781213 0.0 
				1.0119 -0.00351124 0.0 
				1.00572 0.00275592 0.0 
				1.02897 0.0158219 0.0 
				1.01771 0.0118751 0.0 
				1.01742 0.039728 0.0 
				1.01717 0.0226462 0.0 
				0.993314 0.0483798 0.0 
				1.00556 0.0311589 0.0 
				0.965435 0.0376876 0.0 
				0.989414 0.0280119 0.0 
				0.941576 0.0167276 0.0 
				0.979755 0.0151626 0.0 
				0.941576 -0.0167276 0.0 
				0.97488 -1.83624e-09 0.0 
				0.965435 -0.0376876 0.0 
				0.979755 -0.0151626 0.0 
				0.993314 -0.0483798 0.0 
				0.989414 -0.0280119 0.0 
				1.01742 -0.039728 0.0 
				1.00556 -0.0311589 0.0 
				1.02897 -0.0158219 0.0 
				1.01717 -0.0226462 0.0 
				1.0119 0.00351124 0.0 
				1.01771 -0.0118751 0.0 
				0.973537 0.00905541 0.0 
				1.00572 -0.0027559 0.0 
				0.811508 0.00333267 0.0 
				0.98353 -0.00781213 0.0 
				0.964834 -0.0110856 0.0 
				0.83744 1.19301e-08 0.0 
				1.00859 -0.00716046 0.0 
				1.00412 -0.0100081 0.0 
				1.0109 -0.000979244 0.0 
				1.01442 -0.00196035 0.0 
				1.00822 0.00402042 0.0 
				1.01436 0.00543264 0.0 
				1.00334 0.00768451 0.0 
				1.00928 0.0111418 0.0 
				0.997502 0.00804275 0.0 
				1.00094 0.0141531 0.0 
				0.993183 0.00554651 0.0 
				0.992625 0.0120295 0.0 
				0.991048 0.00199722 0.0 
				0.987677 0.00655298 0.0 
				0.991048 -0.00199722 0.0 
				0.984585 8.51598e-12 0.0 
				0.993183 -0.00554651 0.0 
				0.987677 -0.00655298 0.0 
				0.997502 -0.00804275 0.0 
				0.992625 -0.0120295 0.0 
				1.00334 -0.00768451 0.0 
				1.00094 -0.0141531 0.0 
				1.00822 -0.00402042 0.0 
				1.00928 -0.0111418 0.0 
				1.0109 0.000979241 0.0 
				1.01436 -0.00543264 0.0 
				1.00859 0.00716046 0.0 
				1.01442 0.00196034 0.0 
				0.964834 0.0110856 0.0 
				1.00412 0.0100081 0.0 
			</DataArray>
		</CellData>
		<Points>
		<DataArray type="Float64" NumberOfComponents="3" Format="ascii">
			0.5 0 0.0 
			0.46194 0.191342 0.0 
			0.353553 0.353553 0.0 
			0.191342 0.46194 0.0 
			-2.18557e-08 0.5 0.0 
			-0.191342 0.46194 0.0 
			-0.353553 0.353553 0.0 
			-0.46194 0.191342 0.0 
			-0.5 -4.37114e-08 0.0 
			-0.46194 -0.191342 0.0 
			-0.353553 -0.353553 0.0 
			-0.191342 -0.46194 0.0 
			6.55671e-08 -0.5 0.0 
			0.191342 -0.46194 0.0 
			0.353553 -0.353553 0.0 
			0.46194 -0.191342 0.0 
			0.884503 0.175939 0.0 
			0.749846 0.501031 0.0 
			0.501031 0.749846 0.0 
			0.175939 0.884503 0.0 
			-0.175939 0.884503 0.0 
			-0.501031 0.749846 0.0 
			-0.749846 0.501031 0.0 
			-0.884503 0.175939 0.0 
			-0.884503 -0.175939 0.0 
			-0.749846 -0.501031 0.0 
			-0.501031 -0.749846 0.0 
			-0.175939 -0.884503 0.0 
			0.175939 -0.884503 0.0 
			0.501031 -0.749846 0.0 
			0.749846 -0.501031 0.0 
			0.884503 -0.175938 0.0 
			2.20148 0 0.0 
			2.0339 0.842468 0.0 
			1.55668 1.55668 0.0 
			0.842468 2.0339 0.0 
			-9.62295e-08 2.20148 0.0 
			-0.842468 2.0339 0.0 
			-1.55668 1.55668 0.0 
			-2.0339 0.842468 0.0 
			-2.20148 -1.92459e-07 0.0 
			-2.0339 -0.842468 0.0 
			-1.55668 -1.55668 0.0 
			-0.842468 -2.0339 0.0 
			2.88689e-07 -2.20148 0.0 
			0.842468 -2.0339 0.0 
			1.55668 -1.55668 0.0 
			2.0339 -0.842468 0.0 
			6.28184 1.24954 0.0 
			5.32549 3.55838 0.0 
			3.55838 5.32549 0.0 
			1.24954 6.28184 0.0 
			-1.24954 6.28184 0.0 
			-3.55838 5.32549 0.0 
			-5.32549 3.55838 0.0 
			-6.28184 1.24954 0.0 
			-6.28184 -1.24954 0.0 
			-5.32549 -3.55838 0.0 
			-3.55838 -5.32549 0.0 
			-1.24954 -6.28184 0.0 
			1.24954 -6.28184 0.0 
			3.55838 -5.32549 0.0 
			5.32549 -3.55838 0.0 
			6.28184 -1.24953 0.0 
			20.0001 0 0.0 
			18.4777 7.6537 0.0 
			14.1422 14.1422 0.0 
			7.6537 18.4777 0.0 
			-8.74231e-07 20.0001 0.0 
			-7.6537 18.4777 0.0 
			-14.1422 14.1422 0.0 
			-18.4777 7.65369 0.0 
			-20.0001 -1.74846e-06 0.0 
			-18.4777 -7.6537 0.0 
			-14.1422 -14.1422 0.0 
			-7.65369 -18.4777 0.0 
			2.62269e-06 -20.0001 0.0 
			7.6537 -18.4777 0.0 
			14.1422 -14.1422 0.0 
			18.4777 -7.65369 0.0 
		</DataArray>
		</Points>
		<Cells>
			<DataArray type="UInt32" Name="connectivity" Format="ascii">
				0 16 1 
				0 31 16 
				1 17 2 
				1 16 17 
				2 18 3 
				2 17 18 
				3 19 4 
				3 18 19 
				4 20 5 
				4 19 20 
				5 21 6 
				5 20 21 
				6 22 7 
				6 21 22 
				7 23 8 
				7 22 23 
				8 24 9 
				8 23 24 
				9 25 10 
				9 24 25 
				10 26 11 
				10 25 26 
				11 27 12 
				11 26 27 
				12 28 13 
				12 27 28 
				13 29 14 
				13 28 29 
				14 30 15 
				14 29 30 
				15 31 0 
				15 30 31 
				16 32 33 
				16 31 32 
				17 33 34 
				17 16 33 
				18 34 35 
				18 17 34 
				19 35 36 
				19 18 35 
				20 36 37 
				20 19 36 
				21 37 38 
				21 20 37 
				22 38 39 
				22 21 38 
				23 39 40 
				23 22 39 
				24 40 41 
				24 23 40 
				25 41 42 
				25 24 41 
				26 42 43 
				26 25 42 
				27 43 44 
				27 26 43 
				28 44 45 
				28 27 44 
				29 45 46 
				29 28 45 
				30 46 47 
				30 29 46 
				31 47 32 
				31 30 47 
				32 48 33 
				32 63 48 
				33 49 34 
				33 48 49 
				34 50 35 
				34 49 50 
				35 51 36 
				35 50 51 
				36 52 37 
				36 51 52 
				37 53 38 
				37 52 53 
				38 54 39 
				38 53 54 
				39 55 40 
				39 54 55 
				40 56 41 
				40 55 56 
				41 57 42 
				41 56 57 
				42 58 43 
				42 57 58 
				43 59 44 
				43 58 59 
				44 60 45 
				44 59 60 
				45 61 46 
				45 60 61 
				46 62 47 
				46 61 62 
				47 63 32 
				47 62 63 
				48 64 65 
				48 63 64 
				49 65 66 
				49 48 65 
				50 66 67 
				50 49 66 
				51 67 68 
				51 50 67 
				52 68 69 
				52 51 68 
				53 69 70 
				53 52 69 
				54 70 71 
				54 53 70 
				55 71 72 
				55 54 71 
				56 72 73 
				56 55 72 
				57 73 74 
				57 56 73 
				58 74 75 
				58 57 74 
				59 75 76 
				59 58 75 
				60 76 77 
				60 59 76 
				61 77 78 
				61 60 77 
				62 78 79 
				62 61 78 
				63 79 64 
				63 62 79 
			</DataArray>
			<DataArray type="UInt32" Name="offsets" Format="ascii">
				3
				6
				9
				12
				15
				18
				21
				24
				27
				30
				33
				36
				39
				42
				45
				48
				51
				54
				57
				60
				63
				66
				69
				72
				75
				78
				81
				84
				87
				90
				93
				96
				99
				102
				105
				108
				111
				114
				117
				120
				123
				126
				129
				132
				135
				138
				141
				144
				147
				150
				153
				156
				159
				162
				165
				168
				171
				174
				177
				180
				183
				186
				189
				192
				195
				198
				201
				204
				207
				210
				213
				216
				219
				222
				225
				228
				231
				234
				237
				240
				243
				246
				249
				252
				255
				258
				261
				264
				267
				270
				273
				276
				279
				282
				285
				288
				291
				294
				297
				300
				303
				306
				309
				312
				315
				318
				321
				324
				327
				330
				333
				336
				339
				342
				345
				348
				351
				354
				357
				360
				363
				366
				369
				372
				375
				378
				381
				384
			</DataArray>
			<DataArray type="Int32" Name="types" Format="ascii">
				5
				5
				5
				5
				5
				5
				5
				5
				5
				5
				5
				5
				5
				5
				5
				5
				5
				5
				5
				5
				5
				5
				5
				5
				5
				5
				5
				5
				5
				5
				5
				5
				5
				5
				5
				5
				5
				5
				5
				5
				5
				5
				5
				5
				5
				5
				5
				5
				5
				5
				5
				5
				5
				5
				5
				5
				5
				5
				5
				5
				5
				5
				5
				5
				5
				5
				5
				5
				5
				5
				5
				5
				5
				5
				5
				5
				5
				5
				5
				5
				5
				5
				5
				5
				5
				5
				5
				5
				5
				5
				5
				5
				5
				5
				5
				5
				5
				5
				5
				5
				5
				5
				5
				5
				5
				5
				5
				5
				5
				5
				5
				5
				5
				5
				5
				5
				5
				5
				5
				5
				5
				5
				5
				5
				5
				5
				5
				5
			</DataArray>
		</Cells>
	</Piece>
</UnstructuredGrid>
</VTKFile>