<VTKFile type="UnstructuredGrid" version="0.1" byte_order="LittleEndian">
<UnstructuredGrid>
	<Piece NumberOfPoints="288" NumberOfCells="512">
		<CellData Scalars="density" Vectors="velocity">
			<DataArray type="Float64" Name="density" Format="ascii">
				0.974582
				0.831912
				0.968207
				0.987913
				0.977822
				1.03502
				0.971836
				0.988843
				0.946191
				0.962188
				0.914573
				0.939606
				0.870397
				0.911019
				0.711951
				0.831122
				0.652696
				0.705537
				0.707444
				0.722053
				0.776523
				0.77981
				0.84452
				0.840627
				0.905199
				0.896854
				0.954099
				0.944413
				0.987611
				0.980377
				1.00245
				1.00268
				1.00246
				1.01219
				0.98764
				1.00268
				0.954149
				0.980385
				0.905271
				0.944423
				0.844602
				0.896864
				0.776577
				0.840629
				0.707435
				0.779789
				0.652498
				0.721959
				0.711359
				0.705124
				0.870468
				0.830776
				0.914499
				0.911029
				0.945496
				0.939893
				0.971208
				0.962994
				0.990062
				0.980814
				0.996565
				0.991094
				0.958452
				0.982592
				0.83504
				1.07089
				1.02282
				1.04699
				1.02366
				0.977652
				0.989787
				0.984687
				0.974273
				0.981699
				0.958658
				0.965639
				0.932605
				0.942664
				0.874344
				0.887348
				0.830668
				0.806055
				0.843756
				0.796468
				0.878111
				0.831872
				0.914414
				0.875547
				0.946628
				0.916954
				0.972129
				0.952013
				0.989605
				0.978352
				0.998113
				0.994596
				0.998114
				0.998768
				0.989607
				0.994598
				0.972131
				0.978357
				0.946626
				0.952017
				0.914403
				0.916952
				0.878076
				0.875532
				0.843669
				0.831825
				0.830468
				0.796334
				0.874128
				0.805757
				0.93257
				0.887164
				0.958784
				0.942608
				0.975032
				0.965298
				0.986133
				0.9811
				0.993412
				0.993056
				0.990001
				1.00165
				1.03656
				1.00024
				1.15624
				0.874005
				1.00626
				0.876537
				0.976754
				1.02537
				0.989036
				1.01068
				0.984399
				0.989481
				0.971871
				0.980155
				0.95205
				0.968822
				0.919517
				0.949884
				0.891781
				0.923835
				0.890192
				0.909374
				0.907732
				0.915046
				0.931089
				0.931733
				0.953146
				0.95047
				0.970876
				0.966829
				0.98296
				0.978985
				0.988783
				0.986177
				0.988782
				0.988555
				0.982959
				0.986176
				0.970871
				0.978981
				0.953134
				0.966818
				0.93106
				0.950447
				0.907674
				0.931688
				0.89009
				0.914967
				0.89165
				0.909264
				0.91943
				0.923746
				0.952027
				0.949855
				0.971645
				0.968876
				0.983825
				0.980485
				0.992433
				0.988313
				0.999322
				0.994082
				1.00511
				0.999067
				0.929867
				1.0021
				0.757149
				-nan
				0.955198
				1.14387
				1.02494
				1.0038
				1.00382
				0.989736
				0.991872
				0.992535
				0.986138
				0.987277
				0.978334
				0.978757
				0.966749
				0.966004
				0.955253
				0.950314
				0.950783
				0.940114
				0.95501
				0.94096
				0.964304
				0.950147
				0.97458
				0.962338
				0.98335
				0.97381
				0.989425
				0.982649
				0.992431
				0.987941
				0.992429
				0.989692
				0.989419
				0.987938
				0.983337
				0.982641
				0.974557
				0.973793
				0.964264
				0.962308
				0.95495
				0.950096
				0.950713
				0.940888
				0.9552
				0.940039
				0.966733
				0.95027
				0.97834
				0.965994
				0.986298
				0.97868
				0.991464
				0.986917
				0.994981
				0.992637
				0.997743
				0.997707
				0.997841
				1.00198
				1.23049
				1.00577
				1.12174
				0.913836
				1.02539
				0.918876
				0.991272
				1.00758
				0.995706
				1.0085
				0.995958
				0.99974
				0.992652
				0.996645
				0.987341
				0.993738
				0.98025
				0.98921
				0.973939
				0.984086
				0.972206
				0.98127
				0.976119
				0.983001
				0.983542
				0.988664
				0.991722
				0.99597
				0.998736
				1.00287
				1.00361
				1.00817
				1.00597
				1.01139
				1.00597
				1.01252
				1.0036
				1.01139
				0.998724
				1.00817
				0.991699
				1.00286
				0.983505
				0.995942
				0.976069
				0.988623
				0.972152
				0.982951
				0.973901
				0.981227
				0.98024
				0.984064
				0.987337
				0.989213
				0.992521
				0.99378
				0.995816
				0.996797
				0.998182
				0.998641
				1.00054
				0.999895
				1.00313
				1.00143
				0.924309
				1.004
				0.939518
				0.997521
				0.986402
				1.04654
				1.00927
				1.00556
				1.00569
				0.999224
				1.00334
				1.00133
				1.00275
				1.00109
				1.00189
				0.999592
				1.00077
				0.997413
				1.00056
				0.995436
				1.00245
				0.995446
				1.00645
				0.998428
				1.01147
				1.00366
				1.01628
				1.00956
				1.02009
				1.01477
				1.0226
				1.01858
				1.02384
				1.02077
				1.02384
				1.02149
				1.0226
				1.02077
				1.02008
				1.01857
				1.01627
				1.01476
				1.01145
				1.00954
				1.00642
				1.00363
				1.00242
				0.99839
				1.00054
				0.995412
				1.00076
				0.995418
				1.00189
				0.997406
				1.00282
				0.999576
				1.00321
				1.00099
				1.00324
				1.00171
				1.00302
				1.00224
				1.00259
				1.00285
				1.0446
				1.00545
				1.01944
				1.02122
				1.014
				0.988058
				1.00348
				1.00163
				1.00363
				1.006
				1.00465
				1.00553
				1.00484
				1.00559
				1.00464
				1.00579
				1.00447
				1.00578
				1.00503
				1.00602
				1.00686
				1.00703
				1.00975
				1.00893
				1.01297
				1.0113
				1.0158
				1.01357
				1.01789
				1.01535
				1.01918
				1.01655
				1.01979
				1.01723
				1.01979
				1.01743
				1.01918
				1.01723
				1.01789
				1.01655
				1.01579
				1.01535
				1.01295
				1.01356
				1.00973
				1.01129
				1.00683
				1.00891
				1.00501
				1.00701
				1.00446
				1.00601
				1.00463
				1.00578
				1.00481
				1.00579
				1.0047
				1.00561
				1.0044
				1.00521
				1.00422
				1.00477
				1.00429
				1.00449
				0.98757
				1.00271
				0.998763
				0.986365
				0.996824
				1.0115
				1.00308
				1.00665
				1.00412
				1.00368
				1.00386
				1.00401
				1.00371
				1.00432
				1.00355
				1.00427
				1.00346
				1.00414
				1.00367
				1.00425
				1.0042
				1.00488
				1.00489
				1.00592
				1.0055
				1.00704
				1.00591
				1.00796
				1.00615
				1.00858
				1.00628
				1.00895
				1.00633
				1.00916
				1.00633
				1.00922
				1.00628
				1.00916
				1.00615
				1.00896
				1.0059
				1.00858
				1.00549
				1.00796
				1.00488
				1.00704
				1.00419
				1.00591
				1.00366
				1.00487
				1.00346
				1.00424
				1.00355
				1.00413
				1.00372
				1.00426
				1.00378
				1.00432
				1.00368
				1.00417
				1.00351
				1.00391
				1.00372
				1.00372
				1.00734
				1.00534
			</DataArray>
			<DataArray type="Float64" Name="mach-number" Format="ascii">
				0.0412553
				0.203291
				0.109116
				0.0675046
				0.166091
				0.0933597
				0.244256
				0.200111
				0.346227
				0.301352
				0.443479
				0.39288
				0.537613
				0.475457
				0.785814
				0.601219
				0.886618
				0.797364
				0.794886
				0.775957
				0.678721
				0.684363
				0.557155
				0.579756
				0.434148
				0.470677
				0.311101
				0.360053
				0.18913
				0.250317
				0.0763912
				0.148209
				0.0763679
				0.0881675
				0.189088
				0.148185
				0.311035
				0.250289
				0.434048
				0.360023
				0.557028
				0.470649
				0.678616
				0.579734
				0.794851
				0.684367
				0.886867
				0.776062
				0.786685
				0.797922
				0.537474
				0.601598
				0.443538
				0.475364
				0.347249
				0.392684
				0.245035
				0.301074
				0.1489
				0.207279
				0.0725203
				0.121972
				0.0125871
				0.0582911
				0.22158
				0.0481188
				0.154213
				0.0678217
				0.221547
				0.194556
				0.30229
				0.264562
				0.362108
				0.323733
				0.413428
				0.385757
				0.466437
				0.445678
				0.558612
				0.535785
				0.622804
				0.655483
				0.594361
				0.668117
				0.528395
				0.603815
				0.453126
				0.519937
				0.377684
				0.431549
				0.307956
				0.344301
				0.251125
				0.26372
				0.215832
				0.198323
				0.215825
				0.165781
				0.251108
				0.198307
				0.307935
				0.263697
				0.377666
				0.344278
				0.453119
				0.431532
				0.528417
				0.519935
				0.594455
				0.603854
				0.623064
				0.668283
				0.558909
				0.65588
				0.466457
				0.535995
				0.413322
				0.445732
				0.361612
				0.386137
				0.305211
				0.323901
				0.24065
				0.255935
				0.169885
				0.181365
				0.124213
				0.104369
				0.144993
				0.5975
				0.202983
				0.306911
				0.301543
				0.250817
				0.33542
				0.306963
				0.370044
				0.357617
				0.405806
				0.389676
				0.444435
				0.41819
				0.493912
				0.451269
				0.529753
				0.487792
				0.521453
				0.500935
				0.479862
				0.479978
				0.425822
				0.439553
				0.37145
				0.394335
				0.323835
				0.352796
				0.288826
				0.320567
				0.268748
				0.301147
				0.268743
				0.293563
				0.288815
				0.30114
				0.323822
				0.320556
				0.371443
				0.352787
				0.425832
				0.394338
				0.479911
				0.439584
				0.521567
				0.480058
				0.529917
				0.501067
				0.494029
				0.487908
				0.444473
				0.451309
				0.40604
				0.418143
				0.370517
				0.389399
				0.331288
				0.358916
				0.282303
				0.321354
				0.22019
				0.270978
				0.210646
				0.211011
				0.376563
				-nan
				0.314782
				0.239918
				0.330518
				0.29842
				0.362794
				0.351747
				0.384842
				0.372821
				0.398986
				0.391408
				0.412303
				0.409008
				0.427307
				0.428306
				0.438739
				0.447499
				0.437237
				0.454881
				0.421456
				0.443099
				0.397846
				0.417291
				0.373463
				0.386675
				0.353206
				0.35824
				0.340054
				0.336516
				0.334131
				0.323635
				0.334129
				0.318828
				0.340051
				0.323631
				0.353205
				0.336511
				0.373471
				0.35824
				0.397872
				0.386689
				0.42151
				0.417331
				0.43731
				0.44317
				0.4388
				0.454966
				0.427325
				0.447552
				0.412296
				0.42832
				0.398854
				0.409099
				0.385171
				0.391754
				0.367874
				0.372688
				0.341994
				0.347118
				0.302477
				0.309588
				0.252152
				0.263453
				0.276619
				0.367509
				0.322209
				0.371649
				0.370556
				0.358611
				0.383208
				0.372537
				0.390559
				0.387005
				0.397796
				0.394057
				0.405253
				0.398894
				0.413135
				0.404147
				0.418006
				0.408749
				0.414508
				0.408676
				0.401628
				0.400934
				0.383216
				0.38696
				0.364203
				0.370684
				0.348251
				0.355744
				0.337736
				0.344542
				0.333149
				0.338512
				0.333147
				0.336372
				0.337734
				0.338511
				0.34825
				0.344541
				0.364212
				0.355748
				0.383241
				0.370699
				0.401672
				0.386991
				0.414562
				0.40098
				0.418044
				0.408718
				0.413143
				0.408768
				0.405252
				0.404139
				0.397907
				0.398851
				0.390555
				0.393913
				0.380609
				0.387938
				0.364274
				0.378195
				0.336737
				0.360039
				0.306912
				0.326852
				0.35082
				0.330536
				0.376066
				0.341027
				0.381654
				0.371151
				0.387951
				0.387101
				0.391555
				0.391234
				0.392876
				0.393685
				0.393665
				0.395883
				0.393966
				0.397907
				0.392208
				0.398637
				0.386714
				0.395573
				0.377605
				0.387393
				0.366778
				0.375474
				0.35641
				0.362611
				0.347975
				0.351234
				0.342247
				0.342797
				0.3396
				0.338322
				0.339599
				0.336987
				0.342244
				0.33832
				0.347973
				0.342794
				0.356413
				0.351234
				0.366791
				0.36262
				0.377629
				0.375496
				0.386743
				0.387426
				0.392229
				0.395604
				0.39397
				0.39865
				0.393654
				0.397907
				0.392816
				0.395893
				0.391635
				0.393744
				0.389254
				0.390907
				0.383779
				0.385664
				0.370982
				0.374892
				0.335744
				0.353325
				0.360352
				0.357759
				0.373982
				0.38243
				0.385792
				0.386601
				0.389035
				0.386687
				0.389177
				0.387906
				0.389004
				0.38789
				0.38864
				0.387142
				0.387699
				0.386121
				0.385257
				0.384339
				0.380599
				0.381127
				0.374132
				0.376393
				0.367175
				0.370912
				0.36098
				0.365707
				0.356192
				0.361436
				0.352991
				0.358291
				0.351681
				0.356326
				0.35168
				0.355862
				0.352987
				0.356323
				0.356187
				0.358285
				0.360977
				0.361431
				0.36718
				0.365706
				0.374147
				0.370919
				0.380621
				0.376408
				0.385276
				0.381145
				0.387706
				0.384353
				0.388643
				0.386121
				0.389023
				0.38714
				0.389084
				0.387867
				0.388366
				0.388176
				0.385788
				0.387465
				0.378873
				0.384419
				0.361259
				0.37586
				0.378293
				0.373385
				0.385331
				0.378371
				0.385706
				0.3829
				0.385172
				0.385905
				0.384623
				0.386004
				0.383815
				0.385287
				0.382974
				0.384543
				0.382022
				0.383669
				0.380682
				0.382299
				0.37889
				0.380144
				0.376942
				0.377412
				0.375224
				0.374683
				0.373927
				0.372427
				0.373021
				0.370777
				0.372398
				0.369636
				0.372124
				0.368939
				0.372125
				0.368758
				0.3724
				0.368936
				0.373024
				0.369631
				0.37393
				0.370771
				0.375227
				0.372421
				0.376947
				0.374681
				0.378897
				0.377416
				0.380689
				0.380153
				0.382029
				0.38231
				0.382975
				0.383679
				0.383816
				0.384547
				0.384678
				0.385278
				0.385391
				0.385882
				0.385512
				0.385943
				0.384086
				0.384664
				0.377608
				0.380234
			</DataArray>
			<DataArray type="Float64" Name="pressure" Format="ascii">
				5.09512
				3.95133
				4.82644
				4.92975
				4.8593
				5.2423
				4.84605
				4.9438
				4.67985
				4.77402
				4.46355
				4.61977
				4.16124
				4.42155
				3.12548
				3.88802
				2.76284
				3.08982
				3.09013
				3.18106
				3.51394
				3.53335
				3.94544
				3.91872
				4.34363
				4.28558
				4.67494
				4.60328
				4.90989
				4.84755
				5.02715
				4.999
				5.02723
				5.04939
				4.91012
				4.99903
				4.67531
				4.8476
				4.34414
				4.60335
				3.946
				4.28565
				3.5143
				3.91874
				3.09009
				3.53321
				2.76169
				3.18047
				3.12177
				3.08734
				4.16176
				3.88579
				4.46312
				4.42169
				4.67507
				4.6218
				4.8413
				4.77961
				4.9408
				4.88776
				4.98081
				4.93609
				4.83015
				4.93807
				3.95059
				5.26408
				5.17676
				5.45385
				5.14722
				4.84598
				4.90765
				4.8827
				4.79666
				4.8631
				4.68532
				4.74892
				4.5059
				4.58789
				4.11286
				4.21249
				3.82769
				3.68062
				3.91108
				3.6131
				4.13324
				3.83609
				4.37254
				4.11818
				4.58829
				4.391
				4.76126
				4.62618
				4.881
				4.80573
				4.94064
				4.91788
				4.94065
				4.95709
				4.88101
				4.91789
				4.76127
				4.80576
				4.58828
				4.6262
				4.37246
				4.39099
				4.13301
				4.11808
				3.91052
				3.83578
				3.82641
				3.61224
				4.11144
				3.67873
				4.5057
				4.21129
				4.6862
				4.58754
				4.8019
				4.7466
				4.88207
				4.85894
				4.93148
				4.93994
				4.91427
				4.99203
				5.19613
				5.01565
				6.33573
				3.61037
				5.06924
				4.17375
				4.81091
				5.15696
				4.88744
				5.03487
				4.85356
				4.88507
				4.76582
				4.81951
				4.6294
				4.74089
				4.40882
				4.61102
				4.22313
				4.43389
				4.21049
				4.33685
				4.32548
				4.37466
				4.48113
				4.48604
				4.62984
				4.612
				4.75055
				4.72275
				4.83354
				4.80541
				4.87427
				4.85437
				4.87427
				4.87091
				4.83353
				4.85436
				4.75051
				4.80538
				4.62975
				4.72267
				4.48093
				4.61185
				4.3251
				4.48573
				4.20982
				4.37413
				4.22226
				4.33612
				4.40825
				4.43329
				4.62926
				4.61083
				4.76427
				4.74126
				4.8496
				4.82179
				4.91078
				4.87695
				4.95914
				4.91817
				5.00443
				4.9547
				4.35073
				4.97211
				3.66591
				-nan
				4.68217
				6.13018
				5.13511
				5.00331
				4.97784
				4.88392
				4.89414
				4.90082
				4.8541
				4.86381
				4.80006
				4.80464
				4.72037
				4.71685
				4.64176
				4.60969
				4.61142
				4.5403
				4.64021
				4.5456
				4.70346
				4.60745
				4.77358
				4.69013
				4.83361
				4.76837
				4.87535
				4.82896
				4.89627
				4.86562
				4.89626
				4.87802
				4.87531
				4.8656
				4.83352
				4.82891
				4.77342
				4.76826
				4.70319
				4.68992
				4.63981
				4.60711
				4.61095
				4.54512
				4.6414
				4.5398
				4.72026
				4.60939
				4.8001
				4.71679
				4.85521
				4.80411
				4.89131
				4.86134
				4.9162
				4.90151
				4.93622
				4.93745
				4.94038
				4.9683
				5.81094
				5.01661
				5.92764
				4.11833
				5.14144
				4.43218
				4.89059
				5.00885
				4.91873
				5.00737
				4.92017
				4.94577
				4.89717
				4.92422
				4.86043
				4.90407
				4.81158
				4.87279
				4.76825
				4.83747
				4.75635
				4.81812
				4.78308
				4.83006
				4.83396
				4.86907
				4.89021
				4.91948
				4.93861
				4.96724
				4.97236
				5.00402
				4.98881
				5.02655
				4.9888
				5.03441
				4.97232
				5.02652
				4.93852
				5.00396
				4.89005
				4.96713
				4.8337
				4.91929
				4.78274
				4.86879
				4.75598
				4.82972
				4.768
				4.81782
				4.81152
				4.83732
				4.86041
				4.87281
				4.89627
				4.90436
				4.9192
				4.92527
				4.93583
				4.93814
				4.95265
				4.94703
				4.97248
				4.95835
				4.32062
				4.96732
				4.55228
				4.84751
				4.85767
				5.28965
				5.01188
				4.98751
				4.98623
				4.94173
				4.96983
				4.95606
				4.96577
				4.9544
				4.9598
				4.944
				4.95201
				4.92892
				4.95059
				4.91526
				4.96369
				4.91533
				4.99144
				4.93592
				5.02637
				4.97214
				5.05986
				5.01303
				5.0864
				5.04925
				5.10396
				5.07577
				5.11266
				5.09109
				5.11265
				5.09625
				5.10394
				5.09108
				5.08636
				5.07573
				5.05977
				5.04917
				5.02621
				5.01289
				4.99122
				4.97192
				4.96346
				4.93566
				4.95041
				4.91509
				4.95194
				4.91513
				4.95982
				4.92887
				4.96624
				4.94389
				4.96898
				4.95371
				4.96916
				4.95872
				4.96774
				4.96246
				4.96519
				4.96692
				5.23341
				4.98862
				5.0941
				5.08807
				5.04561
				4.86836
				4.97087
				4.95833
				4.97182
				4.98825
				4.97884
				4.98496
				4.98018
				4.98539
				4.9788
				4.98673
				4.97758
				4.98669
				4.9815
				4.98836
				4.99415
				4.99533
				5.01424
				5.00855
				5.03663
				5.02507
				5.05638
				5.04083
				5.07096
				5.05322
				5.08001
				5.06155
				5.08433
				5.06627
				5.08433
				5.06764
				5.08001
				5.06627
				5.07095
				5.06156
				5.05635
				5.05321
				5.03655
				5.0408
				5.0141
				5.02499
				4.99398
				5.00842
				4.98134
				4.99519
				4.9775
				4.98823
				4.97872
				4.98665
				4.97997
				4.98671
				4.97919
				4.98552
				4.9771
				4.98276
				4.97594
				4.97972
				4.97653
				4.97782
				4.85335
				4.96476
				4.93954
				4.84839
				4.92516
				5.0277
				4.96799
				4.99279
				4.97515
				4.97213
				4.97333
				4.97441
				4.97234
				4.97659
				4.9712
				4.9762
				4.97059
				4.97529
				4.97199
				4.97609
				4.97572
				4.9804
				4.98049
				4.98763
				4.98467
				4.99544
				4.98755
				5.00182
				4.98922
				5.00614
				4.9901
				5.00873
				4.99044
				5.01017
				4.99043
				5.01057
				4.99008
				5.01018
				4.98919
				5.00875
				4.98751
				5.00617
				4.98463
				5.00184
				4.98042
				4.99543
				4.97565
				4.98759
				4.97192
				4.98032
				4.97054
				4.976
				4.97121
				4.97521
				4.9724
				4.97613
				4.97281
				4.97657
				4.97213
				4.97552
				4.97096
				4.97374
				4.97243
				4.97243
				4.99439
				4.98368
			</DataArray>
			<DataArray type="Float64" Name="velocity" NumberOfComponents="3" Format="ascii">
				0.0426977 0.103122 0.0 
				0.378717 -0.362465 0.0 
				0.218993 -0.187444 0.0 
				0.0922939 -0.152698 0.0 
				0.312495 -0.307037 0.0 
				0.156968 -0.192783 0.0 
				0.496457 -0.412345 0.0 
				0.429923 -0.308955 0.0 
				0.774037 -0.480537 0.0 
				0.685442 -0.401228 0.0 
				1.06616 -0.455079 0.0 
				0.938966 -0.425237 0.0 
				1.34897 -0.338843 0.0 
				1.18225 -0.371888 0.0 
				1.94277 -0.144365 0.0 
				1.50642 -0.313078 0.0 
				2.14017 0.279618 0.0 
				1.97433 -0.0113686 0.0 
				1.8676 0.613121 0.0 
				1.89076 0.372475 0.0 
				1.50455 0.809172 0.0 
				1.60739 0.622315 0.0 
				1.12292 0.877145 0.0 
				1.27974 0.745566 0.0 
				0.765631 0.824645 0.0 
				0.954695 0.755384 0.0 
				0.467107 0.667628 0.0 
				0.665951 0.664189 0.0 
				0.253386 0.429835 0.0 
				0.440501 0.4896 0.0 
				0.141064 0.145162 0.0 
				0.295518 0.256884 0.0 
				0.141053 -0.145087 0.0 
				0.233003 3.65691e-05 0.0 
				0.253344 -0.429736 0.0 
				0.295498 -0.256812 0.0 
				0.467017 -0.667493 0.0 
				0.440468 -0.489533 0.0 
				0.765466 -0.824474 0.0 
				0.6659 -0.664135 0.0 
				1.12268 -0.876977 0.0 
				0.954629 -0.755354 0.0 
				1.50433 -0.809086 0.0 
				1.27967 -0.74558 0.0 
				1.8675 -0.613158 0.0 
				1.60735 -0.622414 0.0 
				2.14062 -0.279887 0.0 
				1.89091 -0.372739 0.0 
				1.94457 0.144542 0.0 
				1.9755 0.0110749 0.0 
				1.34864 0.338797 0.0 
				1.50718 0.313573 0.0 
				1.0663 0.455124 0.0 
				1.18201 0.371885 0.0 
				0.776699 0.481096 0.0 
				0.938325 0.425573 0.0 
				0.499579 0.411633 0.0 
				0.683513 0.40332 0.0 
				0.277555 0.279039 0.0 
				0.445866 0.317736 0.0 
				0.131576 0.139597 0.0 
				0.251747 0.200891 0.0 
				0.0171883 -0.028677 0.0 
				0.10204 0.116166 0.0 
				0.367733 -0.435852 0.0 
				0.124128 0.0229487 0.0 
				0.393714 -0.116195 0.0 
				0.155492 0.0967845 0.0 
				0.566982 -0.15509 0.0 
				0.454884 -0.23612 0.0 
				0.761062 -0.234739 0.0 
				0.640483 -0.275095 0.0 
				0.916679 -0.251953 0.0 
				0.801216 -0.291358 0.0 
				1.05558 -0.235087 0.0 
				0.968987 -0.292606 0.0 
				1.19703 -0.196846 0.0 
				1.13375 -0.260803 0.0 
				1.43085 -0.0875093 0.0 
				1.36775 -0.192753 0.0 
				1.57565 0.140181 0.0 
				1.65724 0.0151509 0.0 
				1.47455 0.343801 0.0 
				1.65362 0.316985 0.0 
				1.27613 0.459734 0.0 
				1.44924 0.503483 0.0 
				1.06494 0.49035 0.0 
				1.20034 0.582513 0.0 
				0.87391 0.451929 0.0 
				0.957689 0.575655 0.0 
				0.721466 0.360238 0.0 
				0.747636 0.497496 0.0 
				0.618098 0.231129 0.0 
				0.588063 0.363947 0.0 
				0.562345 0.0811848 0.0 
				0.48484 0.192886 0.0 
				0.562335 -0.0811124 0.0 
				0.436998 3.76304e-05 0.0 
				0.618074 -0.231065 0.0 
				0.484821 -0.192813 0.0 
				0.721429 -0.36019 0.0 
				0.588033 -0.363884 0.0 
				0.873865 -0.451912 0.0 
				0.747594 -0.497452 0.0 
				1.0649 -0.490385 0.0 
				0.957643 -0.575644 0.0 
				1.27614 -0.459851 0.0 
				1.20031 -0.582559 0.0 
				1.47471 -0.344015 0.0 
				1.44928 -0.503632 0.0 
				1.57622 -0.140396 0.0 
				1.65392 -0.317321 0.0 
				1.43154 0.087515 0.0 
				1.65812 -0.0154005 0.0 
				1.19704 0.197058 0.0 
				1.36821 0.192999 0.0 
				1.05532 0.235094 0.0 
				1.13385 0.260945 0.0 
				0.915634 0.251403 0.0 
				0.969799 0.293132 0.0 
				0.765838 0.243194 0.0 
				0.801327 0.292045 0.0 
				0.59827 0.211083 0.0 
				0.623761 0.25904 0.0 
				0.418445 0.159601 0.0 
				0.436946 0.196429 0.0 
				0.272831 0.183965 0.0 
				0.257254 0.101444 0.0 
				0.216306 0.338361 0.0 
				1.32205 -0.56287 0.0 
				0.534463 -0.0702663 0.0 
				0.704783 -0.362229 0.0 
				0.770793 -0.181328 0.0 
				0.661088 -0.0769044 0.0 
				0.867452 -0.16086 0.0 
				0.804099 -0.102883 0.0 
				0.960253 -0.152035 0.0 
				0.932093 -0.123101 0.0 
				1.05457 -0.135829 0.0 
				1.01611 -0.113284 0.0 
				1.15514 -0.101514 0.0 
				1.09078 -0.0910386 0.0 
				1.27933 -0.0291015 0.0 
				1.17531 -0.0510311 0.0 
				1.35979 0.107533 0.0 
				1.26399 0.0331679 0.0 
				1.31821 0.250758 0.0 
				1.28585 0.148338 0.0 
				1.19351 0.334205 0.0 
				1.2185 0.239212 0.0 
				1.04772 0.352168 0.0 
				1.10626 0.280201 0.0 
				0.91446 0.319448 0.0 
				0.990648 0.273804 0.0 
				0.809745 0.250388 0.0 
				0.893128 0.2313 0.0 
				0.741171 0.157967 0.0 
				0.824095 0.164482 0.0 
				0.703922 0.0543 0.0 
				0.786014 0.0846037 0.0 
				0.703915 -0.0542363 0.0 
				0.771027 3.08785e-05 0.0 
				0.741154 -0.157911 0.0 
				0.786002 -0.0845465 0.0 
				0.80972 -0.250352 0.0 
				0.824075 -0.164439 0.0 
				0.914438 -0.319447 0.0 
				0.893106 -0.231285 0.0 
				1.04772 -0.352222 0.0 
				0.990644 -0.273832 0.0 
				1.19359 -0.334338 0.0 
				1.10631 -0.280284 0.0 
				1.31844 -0.250954 0.0 
				1.21866 -0.239339 0.0 
				1.36016 -0.107648 0.0 
				1.28615 -0.148449 0.0 
				1.27961 0.0291706 0.0 
				1.26427 -0.0331689 0.0 
				1.15522 0.101644 0.0 
				1.17541 0.0511464 0.0 
				1.05511 0.136045 0.0 
				1.09067 0.0910999 0.0 
				0.961297 0.152669 0.0 
				1.01545 0.113225 0.0 
				0.857832 0.156295 0.0 
				0.935101 0.124656 0.0 
				0.729792 0.14521 0.0 
				0.836313 0.125945 0.0 
				0.570136 0.113592 0.0 
				0.705163 0.112107 0.0 
				0.466789 -0.269744 0.0 
				0.549281 0.087073 0.0 
				0.630266 -0.750962 0.0 
				-nan -nan 0.0 
				0.807771 -0.165819 0.0 
				0.550847 0.358382 0.0 
				0.875337 0.00565755 0.0 
				0.786691 -0.0504786 0.0 
				0.955311 -0.0337662 0.0 
				0.920222 -0.0890843 0.0 
				1.01058 -0.0424928 0.0 
				0.977943 -0.0668619 0.0 
				1.04693 -0.031019 0.0 
				1.02653 -0.0536869 0.0 
				1.0805 -0.0134212 0.0 
				1.07161 -0.0364339 0.0 
				1.11711 0.0147918 0.0 
				1.1198 -0.00888322 0.0 
				1.14276 0.059951 0.0 
				1.16551 0.0390124 0.0 
				1.13401 0.110215 0.0 
				1.1781 0.105393 0.0 
				1.0896 0.145044 0.0 
				1.14059 0.164022 0.0 
				1.02807 0.154624 0.0 
				1.06999 0.193092 0.0 
				0.967799 0.140678 0.0 
				0.992104 0.189499 0.0 
				0.92006 0.109574 0.0 
				0.924182 0.160202 0.0 
				0.890542 0.0681653 0.0 
				0.875291 0.113877 0.0 
				0.877833 0.0231414 0.0 
				0.847771 0.0588631 0.0 
				0.87783 -0.0230902 0.0 
				0.837515 2.68293e-05 0.0 
				0.890536 -0.0681228 0.0 
				0.847764 -0.0588143 0.0 
				0.920057 -0.10955 0.0 
				0.875282 -0.113843 0.0 
				0.967814 -0.140682 0.0 
				0.92418 -0.160194 0.0 
				1.02813 -0.154661 0.0 
				0.992129 -0.189529 0.0 
				1.08972 -0.1451 0.0 
				1.07007 -0.193161 0.0 
				1.13418 -0.110253 0.0 
				1.14075 -0.164102 0.0 
				1.14291 -0.0599345 0.0 
				1.1783 -0.105426 0.0 
				1.11716 -0.0147375 0.0 
				1.16564 -0.0389724 0.0 
				1.08049 0.0134925 0.0 
				1.11984 0.00895696 0.0 
				1.04662 0.0308951 0.0 
				1.07183 0.0365673 0.0 
				1.01131 0.0438983 0.0 
				1.02733 0.0542191 0.0 
				0.966013 0.054376 0.0 
				0.977631 0.0665749 0.0 
				0.898101 0.0593282 0.0 
				0.91076 0.0729106 0.0 
				0.794768 0.050202 0.0 
				0.812887 0.0675201 0.0 
				0.588321 0.27247 0.0 
				0.692175 0.0745831 0.0 
				0.700727 0.273979 0.0 
				0.851827 -0.355731 0.0 
				0.853197 0.0289907 0.0 
				0.939067 -0.225566 0.0 
				0.972683 -0.0480976 0.0 
				0.945891 -0.0176185 0.0 
				1.00736 -0.0286188 0.0 
				0.982179 -0.00658396 0.0 
				1.02702 -0.0142963 0.0 
				1.01843 -0.0102425 0.0 
				1.04543 -0.00287195 0.0 
				1.03638 -0.00181875 0.0 
				1.06383 0.0106579 0.0 
				1.04845 0.00890215 0.0 
				1.08257 0.0307152 0.0 
				1.06109 0.0222861 0.0 
				1.09268 0.060672 0.0 
				1.07146 0.0423438 0.0 
				1.08072 0.0941573 0.0 
				1.0693 0.0685321 0.0 
				1.0453 0.117951 0.0 
				1.04753 0.0920151 0.0 
				0.997557 0.123919 0.0 
				1.01078 0.10364 0.0 
				0.950326 0.112173 0.0 
				0.969599 0.100322 0.0 
				0.912134 0.0871644 0.0 
				0.932984 0.0842017 0.0 
				0.887837 0.0541933 0.0 
				0.90629 0.0593922 0.0 
				0.877635 0.0182658 0.0 
				0.892417 0.0300254 0.0 
				0.877632 -0.0182185 0.0 
				0.887475 2.379e-05 0.0 
				0.887832 -0.0541547 0.0 
				0.892414 -0.0299817 0.0 
				0.912133 -0.087143 0.0 
				0.906288 -0.0593595 0.0 
				0.950343 -0.112176 0.0 
				0.932993 -0.0841867 0.0 
				0.997612 -0.123943 0.0 
				0.969633 -0.100327 0.0 
				1.04541 -0.11798 0.0 
				1.01086 -0.103657 0.0 
				1.08085 -0.0941612 0.0 
				1.04764 -0.0920223 0.0 
				1.09277 -0.0606354 0.0 
				1.0694 -0.0685086 0.0 
				1.08259 -0.0306612 0.0 
				1.0715 -0.0422933 0.0 
				1.06383 -0.0106065 0.0 
				1.06107 -0.0222376 0.0 
				1.0457 0.00304662 0.0 
				1.04835 -0.00888601 0.0 
				1.02697 0.0146937 0.0 
				1.03604 0.00175502 0.0 
				1.0011 0.0256063 0.0 
				1.02064 0.0121459 0.0 
				0.958348 0.0338928 0.0 
				0.9951 0.0221847 0.0 
				0.88622 0.0390224 0.0 
				0.947473 0.029141 0.0 
				0.745418 -0.246543 0.0 
				0.859552 0.0338754 0.0 
				0.895966 -0.179212 0.0 
				0.860513 -0.0530546 0.0 
				0.985868 -0.0558618 0.0 
				0.902228 0.0945536 0.0 
				1.00629 0.00569634 0.0 
				0.977986 -0.00899584 0.0 
				1.02208 0.00592813 0.0 
				1.01846 -0.0157501 0.0 
				1.03106 0.0103664 0.0 
				1.02987 0.000173445 0.0 
				1.03429 0.0192512 0.0 
				1.0362 0.0113047 0.0 
				1.03595 0.0291571 0.0 
				1.04151 0.0216487 0.0 
				1.03611 0.0410039 0.0 
				1.04605 0.0340087 0.0 
				1.03077 0.0553443 0.0 
				1.04691 0.0501919 0.0 
				1.01584 0.0689737 0.0 
				1.03778 0.0688089 0.0 
				0.992026 0.0767253 0.0 
				1.01571 0.0837645 0.0 
				0.964459 0.0756859 0.0 
				0.984794 0.0892451 0.0 
				0.938633 0.066276 0.0 
				0.952406 0.0836227 0.0 
				0.917985 0.0507381 0.0 
				0.924462 0.0688532 0.0 
				0.904151 0.0314908 0.0 
				0.904152 0.0481119 0.0 
				0.897858 0.0106458 0.0 
				0.893664 0.0243707 0.0 
				0.897856 -0.0106038 0.0 
				0.890605 2.30509e-05 0.0 
				0.904144 -0.031454 0.0 
				0.893659 -0.0243279 0.0 
				0.91798 -0.0507117 0.0 
				0.904145 -0.0480792 0.0 
				0.93864 -0.0662627 0.0 
				0.924462 -0.0688361 0.0 
				0.96449 -0.0756833 0.0 
				0.952426 -0.083622 0.0 
				0.992085 -0.076723 0.0 
				0.984847 -0.0892527 0.0 
				1.01591 -0.0689573 0.0 
				1.01579 -0.0837628 0.0 
				1.03082 -0.05531 0.0 
				1.03786 -0.068783 0.0 
				1.03612 -0.0409664 0.0 
				1.04694 -0.050147 0.0 
				1.03593 -0.0291229 0.0 
				1.04606 -0.0339661 0.0 
				1.03414 -0.0193341 0.0 
				1.04154 -0.0215967 0.0 
				1.03124 -0.0100232 0.0 
				1.03634 -0.0111283 0.0 
				1.02503 -0.000380388 0.0 
				1.02908 -0.000861652 0.0 
				1.01053 0.00931277 0.0 
				1.01536 0.00924784 0.0 
				0.976691 0.0171465 0.0 