<VTKFile type="UnstructuredGrid" version="0.1" byte_order="LittleEndian">
<UnstructuredGrid>
	<Piece NumberOfPoints="80" NumberOfCells="128">
		<CellData Scalars="density" Vectors="velocity">
			<DataArray type="Float64" Name="density" Format="ascii">
				-nan
				1.25862e+07
				-339.461
				1.6087
				-54.5121
				-296.103
				0.960114
				0.804777
				0.685003
				0.608574
				1.76843
				1.0499
				2.59887
				1.25681
				6.78499
				5.43988
				6.85223
				6.54741
				7.12625
				6.11787
				4.77409
				5.60136
				2.82508
				3.49443
				1.67893
				1.79555
				-5.01594
				1.18032
				-nan
				-28.5711
				-nan
				-nan
				42.6386
				6.01197e+06
				-10.2629
				-7.03643
				-56.7448
				0.127375
				1.27151
				1.0891
				1.20385
				1.07096
				1.16071
				1.04811
				1.49136
				1.11042
				2.53737
				1.27347
				2.58541
				1.3689
				2.48746
				1.3573
				1.79056
				1.26321
				1.43376
				1.15703
				1.18188
				1.08207
				0.926748
				1.05062
				-nan
				3.08931
				1.48331e+06
				-nan
				-nan
				-1.85184e+07
				0.985971
				24.0201
				-105.006
				-66.1214
				1.29257
				1.15694
				1.35151
				1.14296
				1.42782
				1.18204
				2.04164
				1.22235
				4.3661
				3.59779
				4.45828
				4.24696
				4.44081
				3.96915
				2.61363
				3.58405
				1.79203
				2.21397
				1.23826
				1.14284
				0.375891
				0.941034
				13137.8
				1.35414
				728945
				27563.6
				651588
				-1.32502e+06
				2.58146
				24.2286
				2.6681
				-1.37392
				1.03006
				1.00796
				0.997349
				1.01123
				0.964347
				1.01661
				0.962042
				1.02637
				0.979353
				1.08307
				0.988488
				1.11823
				0.978389
				1.11235
				0.983772
				1.06185
				1.00382
				1.03003
				1.03054
				1.01478
				0.665073
				1.00258
				-912.848
				2.67118
				-21874.4
				3259.3
			</DataArray>
			<DataArray type="Float64" Name="mach-number" Format="ascii">
				-nan
				-nan
				-nan
				3.84399
				-nan
				-nan
				0.424567
				0.464071
				0.130098
				0.533936
				0.64133
				0.25522
				1.04147
				0.979754
				0.706715
				0.77982
				0.747886
				0.846439
				0.497051
				0.836129
				0.405364
				0.447411
				0.464717
				0.4543
				0.527023
				0.571009
				-nan
				0.143558
				-nan
				-nan
				-nan
				-nan
				2.6559
				-nan
				1.76324
				-nan
				-nan
				-nan
				0.379246
				0.358656
				0.4443
				0.384246
				0.526749
				0.403816
				0.453592
				0.449363
				0.722323
				0.454826
				0.75996
				0.520909
				0.683074
				0.52406
				0.55039
				0.486559
				0.480341
				0.42927
				0.380406
				0.376034
				-nan
				0.35916
				-nan
				-nan
				3.11296
				-nan
				-nan
				-nan
				-nan
				-nan
				-nan
				-nan
				0.545799
				0.602399
				0.536883
				0.496034
				0.622681
				0.578397
				1.00784
				0.66402
				0.985561
				0.861526
				1.0162
				0.977348
				0.776155
				0.906691
				0.697118
				0.598399
				0.634158
				0.560997
				0.452606
				0.463537
				0.329101
				0.199574
				-nan
				-nan
				2.93396
				2.78879
				-nan
				-nan
				-nan
				1.77996
				-nan
				-nan
				0.444635
				0.359377
				0.389063
				0.373889
				0.317846
				0.392655
				0.248188
				0.409995
				0.174696
				0.43214
				0.181399
				0.478051
				0.264371
				0.455268
				0.326522
				0.423526
				0.389322
				0.394786
				0.450057
				0.373986
				0.943276
				0.361928
				3.62797
				-nan
				-nan
				2.65049
			</DataArray>
			<DataArray type="Float64" Name="pressure" Format="ascii">
				-nan
				-2.53162e+10
				553.576
				3.04675
				150.578
				631.912
				6.98268
				5.79411
				3.2786
				4.90644
				8.21169
				4.92226
				1.55303
				4.03297
				10.2945
				6.72347
				10.464
				7.38619
				10.8088
				7.91733
				6.99867
				2.2584
				7.33303
				3.0159
				7.22481
				6.85445
				38.2613
				4.88177
				-nan
				95.7353
				-nan
				-nan
				115.301
				-5.35504e+09
				-1185.67
				10.7353
				403.038
				-211.56
				6.71905
				5.6135
				6.12173
				5.43723
				5.69012
				5.26126
				4.38837
				5.48862
				6.20744
				5.46864
				6.21681
				5.5697
				7.24074
				5.61787
				6.9762
				6.16876
				6.89347
				5.97418
				6.26804
				5.54101
				-15.4303
				5.32062
				-nan
				-98.0579
				5.94596e+06
				-nan
				-nan
				1.63307e+09
				-1817.58
				-46.8208
				555.778
				772.234
				6.17542
				5.6306
				6.42992
				5.47319
				6.72944
				5.28129
				2.46917
				4.87565
				7.50696
				6.03388
				7.67817
				6.63546
				8.91115
				6.96582
				6.04717
				5.29382
				6.25264
				5.65976
				6.60212
				6.00293
				3.02011
				5.04346
				-867817
				-2.67268
				3.03461e+06
				115377
				-6.73646e+07
				1.03841e+08
				-280.431
				105.302
				-466.124
				310.323
				5.07363
				5.01331
				4.92999
				5.02486
				4.76643
				5.04934
				4.80188
				5.08303
				4.73765
				5.17883
				4.76082
				5.26061
				4.8466
				5.25139
				4.91386
				5.2307
				4.97887
				5.14943
				5.07369
				5.05692
				3.8597
				4.97274
				-3343.42
				-5.20671
				4.22932e+06
				13911
			</DataArray>
			<DataArray type="Float64" Name="velocity" NumberOfComponents="3" Format="ascii">
				-nan -nan 0.0 
				64.9978 -60.6955 0.0 
				-0.868485 -6.75667 0.0 
				-0.895924 6.19487 0.0 
				0.317832 -7.72454 0.0 
				-0.897158 -7.16518 0.0 
				1.05202 -0.853585 0.0 
				0.652466 -1.321 0.0 
				0.336147 -0.0204734 0.0 
				1.7923 -0.0739162 0.0 
				0.992291 1.29969 0.0 
				0.0411921 0.652564 0.0 
				0.844915 -0.439951 0.0 
				1.11382 1.75265 0.0 
				1.01109 -0.196481 0.0 
				0.954201 -0.376505 0.0 
				1.07681 0.19051 0.0 
				1.06374 -0.00216846 0.0 
				0.624946 0.366147 0.0 
				1.08382 0.303256 0.0 
				0.468579 0.34304 0.0 
				0.256571 0.21717 0.0 
				0.563769 0.683347 0.0 
				0.371786 0.333393 0.0 
				0.821921 0.998886 0.0 
				0.712629 1.11118 0.0 
				0.846576 9.87901 0.0 
				0.24999 -0.238407 0.0 
				-nan -nan 0.0 
				-1.28977 7.99622 0.0 
				-nan -nan 0.0 
				-nan -nan 0.0 
				1.32059 4.99602 0.0 
				-9.85891 -60.6957 0.0 
				-14.4561 17.143 0.0 
				1.13984 7.9356 0.0 
				-6.5116 -2.06461 0.0 
				74.6804 45.9789 0.0 
				0.908346 -0.488821 0.0 
				0.942449 -0.200029 0.0 
				1.12707 -0.367507 0.0 
				1.01175 -0.160581 0.0 
				1.3799 0.0133703 0.0 
				1.05887 -0.157413 0.0 
				0.920555 0.0125072 0.0 
				1.18179 -0.026389 0.0 
				1.33017 -0.132724 0.0 
				1.10239 -0.168573 0.0 
				1.38668 0.146113 0.0 
				1.24324 -0.000457842 0.0 
				1.26138 0.557134 0.0 
				1.25037 0.167358 0.0 
				1.11867 0.633186 0.0 
				1.20451 0.409504 0.0 
				1.10175 0.58241 0.0 
				1.11225 0.308163 0.0 
				0.959474 0.392234 0.0 
				0.987269 0.197525 0.0 
				6.54449 9.52443 0.0 
				0.953151 0.077976 0.0 
				-nan -nan 0.0 
				-3.08222 5.62023 0.0 
				-1.45438 7.22967 0.0 
				-nan -nan 0.0 
				-nan -nan 0.0 
				-1.1936 -12.4479 0.0 
				23.4187 -88.1782 0.0 
				-4.61268 2.80426 0.0 
				-6.62062 -2.88226 0.0 
				-9.94803 -3.02817 0.0 
				0.801866 -1.1617 0.0 
				0.543328 -1.47557 0.0 
				1.27948 -0.53179 0.0 
				0.99773 -0.808744 0.0 
				1.51963 0.499109 0.0 
				1.44655 -0.00894336 0.0 
				1.27818 -0.293376 0.0 
				1.24869 0.950258 0.0 
				1.5177 -0.18625 0.0 
				1.27754 -0.332562 0.0 
				1.56362 0.211981 0.0 
				1.44547 -0.00154902 0.0 
				1.15656 0.595613 0.0 
				1.38313 0.326801 0.0 
				0.933597 0.838187 0.0 
				0.644725 0.569909 0.0 
				1.03901 0.940692 0.0 
				0.814972 0.679838 0.0 
				0.953979 0.786792 0.0 
				1.02938 0.721422 0.0 
				-0.33164 -1.05276 0.0 
				0.474357 -0.271734 0.0 
				-12.5546 -7.7302 0.0 
				3.92989 3.13575 0.0 
				-0.592596 7.05824 0.0 
				-0.624752 6.72208 0.0 
				-7.18497 -1.30727 0.0 
				-8.20052 -12.4482 0.0 
				21.6957 23.3889 0.0 
				0.553978 4.35556 0.0 
				-16.6264 -10.987 0.0 
				-11.9024 -29.7574 0.0 
				1.08585 0.429223 0.0 
				0.942198 -0.10757 0.0 
				0.922209 0.443914 0.0 
				0.98095 -0.101141 0.0 
				0.730076 0.407506 0.0 
				1.02982 -0.107549 0.0 
				0.562227 0.338136 0.0 
				1.07703 -0.0740995 0.0 
				0.429798 0.148196 0.0 
				1.11282 -0.108415 0.0 
				0.45232 -0.131457 0.0 
				1.22685 -0.000536504 0.0 
				0.62905 -0.298335 0.0 
				1.16398 0.122737 0.0 
				0.772445 -0.385856 0.0 
				1.09334 0.204104 0.0 
				0.928121 -0.437139 0.0 
				1.03438 0.144528 0.0 
				1.09858 -0.435008 0.0 
				0.982492 0.102399 0.0 
				2.68487 0.143806 0.0 
				0.951882 0.0593535 0.0 
				0.493949 8.20045 0.0 
				0.277651 4.36391 0.0 
				4.24732 37.1589 0.0 
				-0.0418436 6.47885 0.0 
			</DataArray>
		</CellData>
		<Points>
		<DataArray type="Float64" NumberOfComponents="3" Format="ascii">
			0.5 0 0.0 
			0.46194 0.191342 0.0 
			0.353553 0.353553 0.0 
			0.191342 0.46194 0.0 
			-2.18557e-08 0.5 0.0 
			-0.191342 0.46194 0.0 
			-0.353553 0.353553 0.0 
			-0.46194 0.191342 0.0 
			-0.5 -4.37114e-08 0.0 
			-0.46194 -0.191342 0.0 
			-0.353553 -0.353553 0.0 
			-0.191342 -0.46194 0.0 
			6.55671e-08 -0.5 0.0 
			0.191342 -0.46194 0.0 
			0.353553 -0.353553 0.0 
			0.46194 -0.191342 0.0 
			0.884503 0.175939 0.0 
			0.749846 0.501031 0.0 
			0.501031 0.749846 0.0 
			0.175939 0.884503 0.0 
			-0.175939 0.884503 0.0 
			-0.501031 0.749846 0.0 
			-0.749846 0.501031 0.0 
			-0.884503 0.175939 0.0 
			-0.884503 -0.175939 0.0 
			-0.749846 -0.501031 0.0 
			-0.501031 -0.749846 0.0 
			-0.175939 -0.884503 0.0 
			0.175939 -0.884503 0.0 
			0.501031 -0.749846 0.0 
			0.749846 -0.501031 0.0 
			0.884503 -0.175938 0.0 
			2.20148 0 0.0 
			2.0339 0.842468 0.0 
			1.55668 1.55668 0.0 
			0.842468 2.0339 0.0 
			-9.62295e-08 2.20148 0.0 
			-0.842468 2.0339 0.0 
			-1.55668 1.55668 0.0 
			-2.0339 0.842468 0.0 
			-2.20148 -1.92459e-07 0.0 
			-2.0339 -0.842468 0.0 
			-1.55668 -1.55668 0.0 
			-0.842468 -2.0339 0.0 
			2.88689e-07 -2.20148 0.0 
			0.842468 -2.0339 0.0 
			1.55668 -1.55668 0.0 
			2.0339 -0.842468 0.0 
			6.28184 1.24954 0.0 
			5.32549 3.55838 0.0 
			3.55838 5.32549 0.0 
			1.24954 6.28184 0.0 
			-1.24954 6.28184 0.0 
			-3.55838 5.32549 0.0 
			-5.32549 3.55838 0.0 
			-6.28184 1.24954 0.0 
			-6.28184 -1.24954 0.0 
			-5.32549 -3.55838 0.0 
			-3.55838 -5.32549 0.0 
			-1.24954 -6.28184 0.0 
			1.24954 -6.28184 0.0 
			3.55838 -5.32549 0.0 
			5.32549 -3.55838 0.0 
			6.28184 -1.24953 0.0 
			20.0001 0 0.0 
			18.4777 7.6537 0.0 
			14.1422 14.1422 0.0 
			7.6537 18.4777 0.0 
			-8.74231e-07 20.0001 0.0 
			-7.6537 18.4777 0.0 
			-14.1422 14.1422 0.0 
			-18.4777 7.65369 0.0 
			-20.0001 -1.74846e-06 0.0 
			-18.4777 -7.6537 0.0 
			-14.1422 -14.1422 0.0 
			-7.65369 -18.4777 0.0 
			2.62269e-06 -20.0001 0.0 
			7.6537 -18.4777 0.0 
			14.1422 -14.1422 0.0 
			18.4777 -7.65369 0.0 
		</DataArray>
		</Points>
		<Cells>
			<DataArray type="UInt32" Name="connectivity" Format="ascii">
				0 16 1 
				0 31 16 
				1 17 2 
				1 16 17 
				2 18 3 
				2 17 18 
				3 19 4 
				3 18 19 
				4 20 5 
				4 19 20 
				5 21 6 
				5 20 21 
				6 22 7 
				6 21 22 
				7 23 8 
				7 22 23 
				8 24 9 
				8 23 24 
				9 25 10 
				9 24 25 
				10 26 11 
				10 25 26 
				11 27 12 
				11 26 27 
				12 28 13 
				12 27 28 
				13 29 14 
				13 28 29 
				14 30 15 
				14 29 30 
				15 31 0 
				15 30 31 
				16 32 33 
				16 31 32 
				17 33 34 
				17 16 33 
				18 34 35 
				18 17 34 
				19 35 36 
				19 18 35 
				20 36 37 
				20 19 36 
				21 37 38 
				21 20 37 
				22 38 39 
				22 21 38 
				23 39 40 
				23 22 39 
				24 40 41 
				24 23 40 
				25 41 42 
				25 24 41 
				26 42 43 
				26 25 42 
				27 43 44 
				27 26 43 
				28 44 45 
				28 27 44 
				29 45 46 
				29 28 45 
				30 46 47 
				30 29 46 
				31 47 32 
				31 30 47 
				32 48 33 
				32 63 48 
				33 49 34 
				33 48 49 
				34 50 35 
				34 49 50 
				35 51 36 
				35 50 51 
				36 52 37 
				36 51 52 
				37 53 38 
				37 52 53 
				38 54 39 
				38 53 54 
				39 55 40 
				39 54 55 
				40 56 41 
				40 55 56 
				41 57 42 
				41 56 57 
				42 58 43 
				42 57 58 
				43 59 44 
				43 58 59 
				44 60 45 
				44 59 60 
				45 61 46 
				45 60 61 
				46 62 47 
				46 61 62 
				47 63 32 
				47 62 63 
				48 64 65 
				48 63 64 
				49 65 66 
				49 48 65 
				50 66 67 
				50 49 66 
				51 67 68 
				51 50 67 
				52 68 69 
				52 51 68 
				53 69 70 
				53 52 69 
				54 70 71 
				54 53 70 
				55 71 72 
				55 54 71 
				56 72 73 
				56 55 72 
				57 73 74 
				57 56 73 
				58 74 75 
				58 57 74 
				59 75 76 
				59 58 75 
				60 76 77 
				60 59 76 
				61 77 78 
				61 60 77 
				62 78 79 
				62 61 78 
				63 79 64 
				63 62 79 
			</DataArray>
			<DataArray type="UInt32" Name="offsets" Format="ascii">
				3
				6
				9
				12
				15
				18
				21
				24
				27
				30
				33
				36
				39
				42
				45
				48
				51
				54
				57
				60
				63
				66
				69
				72
				75
				78
				81
				84
				87
				90
				93
				96
				99
				102
				105
				108
				111
				114
				117
				120
				123
				126
				129
				132
				135
				138
				141
				144
				147
				150
				153
				156
				159
				162
				165
				168
				171
				174
				177
				180
				183
				186
				189
				192
				195
				198
				201
				204
				207
				210
				213
				216
				219
				222
				225
				228
				231
				234
				237
				240
				243
				246
				249
				252
				255
				258
				261
				264
				267
				270
				273
				276
				279
				282
				285
				288
				291
				294
				297
				300
				303
				306
				309
				312
				315
				318
				321
				324
				327
				330
				333
				336
				339
				342
				345
				348
				351
				354
				357
				360
				363
				366
				369
				372
				375
				378
				381
				384
			</DataArray>
			<DataArray type="Int32" Name="types" Format="ascii">
				5
				5
				5
				5
				5
				5
				5
				5
				5
				5
				5
				5
				5
				5
				5
				5
				5
				5
				5
				5
				5
				5
				5
				5
				5
				5
				5
				5
				5
				5
				5
				5
				5
				5
				5
				5
				5
				5
				5
				5
				5
				5
				5
				5
				5
				5
				5
				5
				5
				5
				5
				5
				5
				5
				5
				5
				5
				5
				5
				5
				5
				5
				5
				5
				5
				5
				5
				5
				5
				5
				5
				5
				5
				5
				5
				5
				5
				5
				5
				5
				5
				5
				5
				5
				5
				5
				5
				5
				5
				5
				5
				5
				5
				5
				5
				5
				5
				5
				5
				5
				5
				5
				5
				5
				5
				5
				5
				5
				5
				5
				5
				5
				5
				5
				5
				5
				5
				5
				5
				5
				5
				5
				5
				5
				5
				5
				5
				5
			</DataArray>
		</Cells>
	</Piece>
</UnstructuredGrid>
</VTKFile>