<VTKFile type="UnstructuredGrid" version="0.1" byte_order="LittleEndian">
<UnstructuredGrid>
	<Piece NumberOfPoints="142" NumberOfCells="128">
		<PointData Scalars="density" Vectors="velocity">
			<DataArray type="Float64" Name="density" Format="ascii">
				0.246684
				0.249971
				0.252369
				0.249938
				0.25
				0.25
				0.246663
				0.247305
				0.248574
				0.251222
				0.252052
				0.2524
				0.252251
				0.252202
				0.251493
				0.248684
				0.248097
				0.247534
				0.25
				0.25
				0.25
				0.25
				0.25
				0.25
				0.25
				0.25
				0.25
				0.25
				0.25
				0.25
				0.25
				0.25
				0.25
				0.25
				0.25
				0.25
				0.25
				0.25
				0.25
				0.25
				0.25
				0.25
				0.25
				0.25
				0.25
				0.25
				0.25
				0.25
				0.25
				0.249969
				0.250117
				0.250152
				0.25
				0.250047
				0.250171
				0.249968
				0.250082
				0.25025
				0.25
				0.25
				0.250004
				0.249876
				0.25
				0.249699
				0.25
				0.249552
				0.250262
				0.249942
				0.25
				0.249727
				0.25
				0.25
				0.25
				0.249975
				0.249638
				0.249871
				0.25
				0.25
				0.249484
				0.25
				0.25
				0.25
				0.25
				0.25
				0.25
				0.25
				0.25
				0.25
				0.25
				0.25
				0.25
				0.250189
				0.250288
				0.25
				0.25
				0.25
				0.25
				0.249997
				0.25
				0.25
				0.25
				0.25
				0.25
				0.25
				0.25
				0.25
				0.25
				0.25
				0.250402
				0.249958
				0.25
				0.25
				0.25
				0.25
				0.25
				0.25
				0.25
				0.25
				0.25
				0.25
				0.25
				0.25
				0.25
				0.25
				0.25
				0.25
				0.25
				0.25
				0.25
				0.25
				0.25
				0.25
				0.25
				0.250464
				0.25
				0.250127
				0.25
				0.25
				0.25
				0.25
				0.25
				0.25
			</DataArray>
			<DataArray type="Float64" Name="mach-number" Format="ascii">
				0.371243
				0.379508
				0.370495
				0.380238
				0.38
				0.38
				0.372058
				0.375117
				0.378575
				0.37744
				0.373536
				0.370626
				0.371701
				0.372725
				0.377005
				0.378605
				0.375583
				0.373612
				0.38
				0.38
				0.38
				0.38
				0.38
				0.38
				0.38
				0.38
				0.38
				0.38
				0.38
				0.38
				0.38
				0.38
				0.38
				0.38
				0.38
				0.38
				0.38
				0.38
				0.38
				0.38
				0.38
				0.38
				0.38
				0.38
				0.38
				0.38
				0.38
				0.38
				0.38
				0.38015
				0.380367
				0.380496
				0.38
				0.380071
				0.380576
				0.380074
				0.38025
				0.380625
				0.38
				0.38
				0.380042
				0.380462
				0.38
				0.379503
				0.38
				0.379317
				0.379465
				0.380293
				0.38
				0.379811
				0.38
				0.38
				0.38
				0.380109
				0.379416
				0.379891
				0.38
				0.38
				0.379323
				0.38
				0.38
				0.38
				0.38
				0.38
				0.38
				0.38
				0.38
				0.38
				0.38
				0.38
				0.38
				0.37946
				0.378991
				0.38
				0.38
				0.38
				0.38
				0.379912
				0.38
				0.38
				0.38
				0.38
				0.38
				0.38
				0.38
				0.38
				0.38
				0.38
				0.378565
				0.380199
				0.38
				0.38
				0.38
				0.38
				0.38
				0.38
				0.38
				0.38
				0.38
				0.38
				0.38
				0.38
				0.38
				0.38
				0.38
				0.38
				0.38
				0.38
				0.38
				0.38
				0.38
				0.38
				0.38
				0.378616
				0.38
				0.37975
				0.38
				0.38
				0.38
				0.38
				0.38
				0.38
			</DataArray>
			<DataArray type="Float64" Name="pressure" Format="ascii">
				1.21632
				1.23657
				1.25519
				1.23616
				1.23664
				1.23664
				1.21596
				1.21951
				1.22726
				1.24566
				1.2523
				1.25538
				1.2541
				1.25354
				1.24764
				1.22803
				1.22473
				1.22144
				1.23664
				1.23664
				1.23664
				1.23664
				1.23664
				1.23664
				1.23664
				1.23664
				1.23664
				1.23664
				1.23664
				1.23664
				1.23664
				1.23664
				1.23664
				1.23664
				1.23664
				1.23664
				1.23664
				1.23664
				1.23664
				1.23664
				1.23664
				1.23664
				1.23664
				1.23664
				1.23664
				1.23664
				1.23664
				1.23664
				1.23664
				1.2364
				1.23733
				1.23754
				1.23664
				1.23695
				1.23763
				1.23641
				1.23713
				1.23816
				1.23664
				1.23664
				1.23666
				1.23569
				1.23664
				1.23467
				1.23664
				1.23371
				1.23858
				1.23618
				1.23664
				1.23482
				1.23664
				1.23664
				1.23664
				1.23645
				1.23426
				1.23578
				1.23664
				1.23664
				1.23327
				1.23664
				1.23664
				1.23664
				1.23664
				1.23664
				1.23664
				1.23664
				1.23664
				1.23664
				1.23664
				1.23664
				1.23664
				1.23809
				1.23889
				1.23664
				1.23664
				1.23664
				1.23664
				1.23665
				1.23664
				1.23664
				1.23664
				1.23664
				1.23664
				1.23664
				1.23664
				1.23664
				1.23664
				1.23664
				1.23977
				1.23632
				1.23664
				1.23664
				1.23664
				1.23664
				1.23664
				1.23664
				1.23664
				1.23664
				1.23664
				1.23664
				1.23664
				1.23664
				1.23664
				1.23664
				1.23664
				1.23664
				1.23664
				1.23664
				1.23664
				1.23664
				1.23664
				1.23664
				1.23664
				1.24018
				1.23664
				1.23758
				1.23664
				1.23664
				1.23664
				1.23664
				1.23664
				1.23664
			</DataArray>
			<DataArray type="Float64" Name="velocity" NumberOfComponents="3" Format="ascii">
				0.975383 -0.000809378 0.0 
				0.998734 0.000606762 0.0 
				0.977651 4.73288e-05 0.0 
				1.00055 0.000629045 0.0 
				1 -1.8905e-17 0.0 
				1 1.02801e-17 0.0 
				0.97738 -0.00920126 0.0 
				0.985526 -0.0132043 0.0 
				0.995264 -0.00906637 0.0 
				0.994399 0.00995886 0.0 
				0.985073 0.0128456 0.0 
				0.977974 0.00794796 0.0 
				0.98061 -0.00684664 0.0 
				0.983137 -0.0121286 0.0 
				0.993501 -0.0103853 0.0 
				0.99544 0.00860324 0.0 
				0.98735 0.00643281 0.0 
				0.981974 0.00411268 0.0 
				1 -8.43145e-18 0.0 
				1 2.61288e-18 0.0 
				1 -9.57921e-18 0.0 
				1 -6.97243e-19 0.0 
				1 -5.60763e-18 0.0 
				1 -1.65337e-17 0.0 
				1 5.4918e-18 0.0 
				1 -9.35407e-18 0.0 
				1 9.65611e-19 0.0 
				1 3.13947e-17 0.0 
				1 2.05334e-17 0.0 
				1 -2.9265e-17 0.0 
				1 -2.18977e-18 0.0 
				1 1.62502e-18 0.0 
				1 8.51687e-19 0.0 
				1 9.42396e-18 0.0 
				1 7.35417e-18 0.0 
				1 1.58658e-17 0.0 
				1 -4.16948e-18 0.0 
				1 -1.68792e-18 0.0 
				1 -5.04927e-18 0.0 
				1 -1.56539e-17 0.0 
				1 1.6792e-17 0.0 
				1 -6.90588e-19 0.0 
				1 -7.25292e-20 0.0 
				1 2.35249e-18 0.0 
				1 -6.80381e-18 0.0 
				1 2.93627e-17 0.0 
				1 -1.34401e-17 0.0 
				1 -8.47193e-18 0.0 
				1 -4.27429e-18 0.0 
				1.00036 0.000174561 0.0 
				1.00101 0.000371381 0.0 
				1.00136 -0.000465282 0.0 
				1 2.02853e-20 0.0 
				1.00021 0.000413674 0.0 
				1.00157 4.8291e-05 0.0 
				1.00016 -0.000326723 0.0 
				1.00069 -0.000418942 0.0 
				1.00176 0.00157387 0.0 
				1 1.23084e-17 0.0 
				1 2.04186e-19 0.0 
				1.00011 2.71733e-05 0.0 
				1.00108 -0.00102543 0.0 
				1 3.68307e-18 0.0 
				0.998495 -6.03579e-05 0.0 
				1 -4.2855e-18 0.0 
				0.99791 -0.00100492 0.0 
				0.998847 0.00191045 0.0 
				1.0007 1.3018e-06 0.0 
				1 -6.96793e-18 0.0 
				0.99931 -0.001307 0.0 
				1 -4.09545e-18 0.0 
				1 3.83324e-18 0.0 
				1 2.83586e-18 0.0 
				1.00026 0.000210322 0.0 
				0.998226 -6.767e-05 0.0 
				0.999622 0.000379595 0.0 
				1 -6.65464e-18 0.0 
				1 3.20295e-18 0.0 
				0.997884 -0.00197338 0.0 
				1 1.30166e-17 0.0 
				1 6.70193e-18 0.0 
				1 8.69209e-19 0.0 
				1 -6.78456e-19 0.0 
				1 -1.09062e-17 0.0 
				1 2.5454e-18 0.0 
				1 -2.8859e-17 0.0 
				1 5.43955e-18 0.0 
				1 -4.34364e-18 0.0 
				1 -8.42547e-18 0.0 
				1 3.11325e-18 0.0 
				1 4.86292e-18 0.0 
				0.998783 -0.000196811 0.0 
				0.997675 1.28025e-05 0.0 
				1 -7.6157e-18 0.0 
				1 -8.22287e-18 0.0 
				1 -4.6678e-18 0.0 
				1 5.68387e-19 0.0 
				0.999776 0.000223395 0.0 
				1 -1.87809e-17 0.0 
				1 -7.58767e-18 0.0 
				1 2.11013e-18 0.0 
				1 -2.12098e-18 0.0 
				1 2.8902e-19 0.0 
				1 6.95995e-18 0.0 
				1 -7.26821e-18 0.0 
				1 -9.43916e-18 0.0 
				1 -1.3037e-17 0.0 
				1 4.59554e-19 0.0 
				0.996682 0.0011218 0.0 
				1.00047 -0.000187473 0.0 
				1 -2.83587e-18 0.0 
				1 1.11092e-17 0.0 
				1 -3.52232e-19 0.0 
				1 -1.32723e-17 0.0 
				1 1.6884e-17 0.0 
				1 -3.3584e-18 0.0 
				1 9.25034e-18 0.0 
				1 1.14234e-17 0.0 
				1 -1.21928e-18 0.0 
				1 -2.88571e-18 0.0 
				1 -7.72936e-18 0.0 
				1 5.243e-19 0.0 
				1 6.14542e-18 0.0 
				1 1.86217e-18 0.0 
				1 4.86448e-18 0.0 
				1 -1.0676e-17 0.0 
				1 6.50119e-18 0.0 
				1 4.06232e-18 0.0 
				1 5.08928e-18 0.0 
				1 -7.17221e-18 0.0 
				1 -9.00159e-18 0.0 
				1 -1.37591e-17 0.0 
				1 3.30791e-18 0.0 
				0.996852 0.00255857 0.0 
				1 -1.21413e-18 0.0 
				0.999468 -0.000303204 0.0 
				1 -1.3277e-18 0.0 
				1 1.1954e-17 0.0 
				1 -1.38885e-18 0.0 
				1 2.49691e-18 0.0 
				1 4.35929e-18 0.0 
				1 -9.96274e-18 0.0 
			</DataArray>
		</PointData>
		<Points>
		<DataArray type="Float64" NumberOfComponents="3" Format="ascii">
			0.5 0 0.0 
			0 0.5 0.0 
			-0.5 0 0.0 
			0 -0.5 0.0 
			-20 0 0.0 
			20 0 0.0 
			0.46194 0.191342 0.0 
			0.353553 0.353553 0.0 
			0.191342 0.46194 0.0 
			-0.191342 0.46194 0.0 
			-0.353553 0.353553 0.0 
			-0.46194 0.191342 0.0 
			-0.46194 -0.191342 0.0 
			-0.353553 -0.353553 0.0 
			-0.191342 -0.46194 0.0 
			0.191342 -0.46194 0.0 
			0.353553 -0.353553 0.0 
			0.46194 -0.191342 0.0 
			-18.4776 -7.65367 0.0 
			-14.1421 -14.1421 0.0 
			-7.65367 -18.4776 0.0 
			-7.77657e-11 -20 0.0 
			7.65367 -18.4776 0.0 
			14.1421 -14.1421 0.0 
			18.4776 -7.65367 0.0 
			18.4776 7.65367 0.0 
			14.1421 14.1421 0.0 
			7.65367 18.4776 0.0 
			7.77657e-11 20 0.0 
			-7.65367 18.4776 0.0 
			-14.1421 14.1421 0.0 
			-18.4776 7.65367 0.0 
			10.5541 1.66785 0.0 
			6.48305 -3.23077 0.0 
			5.57776 5.67285 0.0 
			-0.758133 5.81295 0.0 
			-9.0593 0.555191 0.0 
			0.585461 -6.2409 0.0 
			-5.96218 -4.69677 0.0 
			-4.94035 2.78924 0.0 
			-3.72077 -0.866433 0.0 
			4.7142 1.1405 0.0 
			3.54626 -0.852125 0.0 
			0.852253 -2.18001 0.0 
			2.96198 1.49679 0.0 
			0.740711 3.02528 0.0 
			-0.998879 -3.52285 0.0 
			-0.956278 2.1373 0.0 
			-3.61301 0.340919 0.0 
			-2.13048 -1.19619 0.0 
			1.57355 0.48937 0.0 
			1.32296 -0.996636 0.0 
			-7.76654 10.6238 0.0 
			0.891472 1.25602 0.0 
			1.63246 -0.352672 0.0 
			-0.311481 1.56617 0.0 
			0.856552 -1.36386 0.0 
			1.03742 0.757161 0.0 
			3.06777 13.4368 0.0 
			5.95575 -11.5113 0.0 
			0.246332 1.19066 0.0 
			-0.729704 1.07226 0.0 
			-3.44539 -10.5924 0.0 
			0.793681 -0.546388 0.0 
			3.15462 4.97334 0.0 
			0.907893 0.240319 0.0 
			-0.223755 0.859467 0.0 
			-2.07819 0.112419 0.0 
			4.2338 -3.65095 0.0 
			0.468301 0.721594 0.0 
			12.0045 8.91014 0.0 
			13.5394 -4.31421 0.0 
			-3.56228 -5.92942 0.0 
			-0.469909 -1.73976 0.0 
			0.955042 -0.15145 0.0 
			0.365386 -0.904155 0.0 
			-13.0548 -4.77503 0.0 
			-11.1135 -8.9936 0.0 
			0.720129 0.544024 0.0 
			5.49338 -1.24903 0.0 
			7.85819 4.39286 0.0 
			10.2504 -1.70007 0.0 
			6.53434 11.4569 0.0 
			11.0467 -8.38302 0.0 
			5.14234 2.98074 0.0 
			-0.479891 3.92823 0.0 
			0.377209 -11.8069 0.0 
			-3.15003 11.5354 0.0 
			-5.00051 6.91541 0.0 
			3.97557 -6.02584 0.0 
			1.47682 5.96529 0.0 
			-0.970424 -0.518127 0.0 
			-1.10511 -0.00491089 0.0 
			-5.84702 0.466197 0.0 
			2.835 0.333759 0.0 
			2.42654 -5.30939 0.0 
			-11.9594 5.61765 0.0 
			0.130499 0.856858 0.0 
			1.01279 4.01051 0.0 
			-7.70229 4.01777 0.0 
			-3.11227 4.69033 0.0 
			-9.10295 -3.06398 0.0 
			2.62133 -0.644184 0.0 
			2.73104 3.25202 0.0 
			1.69551 1.45421 0.0 
			-2.9946 -3.14164 0.0 
			0.741956 -3.74824 0.0 
			2.22945 -1.89626 0.0 
			-0.894837 0.452517 0.0 
			-1.44984 1.05821 0.0 
			-2.98858 1.83692 0.0 
			-5.69141 -8.94658 0.0 
			-1.87219 3.1293 0.0 
			-13.5098 0.344751 0.0 
			-1.59219 14.6689 0.0 
			13.6162 5.78192 0.0 
			14.3957 0.834979 0.0 
			2.25819 -14.2975 0.0 
			-1.58604 -8.87432 0.0 
			4.1354 -0.161257 0.0 
			-0.0502473 2.75732 0.0 
			6.87981 0.196569 0.0 
			1.32032 2.39915 0.0 
			3.29746 8.06923 0.0 
			2.63938 -8.81672 0.0 
			-0.672241 9.25508 0.0 
			6.62207 -6.2841 0.0 
			9.10528 -5.7438 0.0 
			8.91879 7.94575 0.0 
			3.89792 -1.90162 0.0 
			2.39576 -3.77199 0.0 
			-5.58839 14.7821 0.0 
			-1.29634 -5.20451 0.0 
			-0.566232 0.727812 0.0 
			-7.43723 -13.0345 0.0 
			-0.48028 -0.730073 0.0 
			-2.71348 -14.6885 0.0 
			10.0937 5.46115 0.0 
			-5.4949 -2.27707 0.0 
			0.444882 1.97478 0.0 
			-8.4784 -5.92895 0.0 
			7.61581 2.41424 0.0 
		</DataArray>
		</Points>
		<Cells>
			<DataArray type="UInt32" Name="connectivity" Format="ascii">
				135 14 13 
				14 135 3 
				15 75 16 
				75 15 3 
				83 59 22 23 
				125 88 100 35 
				70 115 25 26 
				58 82 26 27 
				71 83 23 24 
				79 33 81 121 
				76 18 19 77 
				116 71 24 5 
				18 76 113 4 
				10 9 66 133 
				1 8 69 97 
				36 113 76 101 
				7 6 65 78 
				50 94 44 104 
				45 98 85 120 
				90 35 85 98 
				44 41 84 103 
				12 91 135 13 
				96 99 88 52 
				91 49 73 135 
				0 17 63 74 
				52 30 31 96 
				116 5 25 115 
				32 81 71 116 
				21 136 134 20 
				34 84 141 80 
				39 100 88 99 
				125 87 52 88 
				27 28 114 58 
				55 47 109 61 
				34 64 103 84 
				37 132 72 118 
				99 96 113 36 
				56 43 107 51 
				89 124 59 126 
				136 62 111 134 
				98 45 122 103 
				67 48 40 49 
				72 111 62 118 
				56 75 73 43 
				94 50 54 102 
				52 131 29 30 
				59 117 21 22 
				49 40 138 105 
				105 46 73 49 
				125 123 82 58 
				47 120 85 112 
				117 59 124 86 
				52 87 114 131 
				119 79 121 41 
				4 113 96 31 
				26 82 128 70 
				114 87 125 58 
				33 79 129 68 
				48 93 138 40 
				95 37 124 89 
				116 115 137 32 
				123 125 35 90 
				107 102 54 51 
				42 129 79 119 
				50 104 53 57 
				75 56 51 63 
				81 32 141 121 
				64 34 123 90 
				102 42 119 94 
				34 128 82 123 
				81 33 126 127 
				35 100 112 85 
				68 89 126 33 
				20 134 77 19 
				39 99 36 93 
				130 106 37 95 
				36 101 138 93 
				72 38 140 111 
				119 41 44 94 
				109 108 133 61 
				89 68 130 95 
				83 71 81 127 
				139 120 47 55 
				141 32 137 80 
				118 62 136 86 
				90 98 103 64 
				53 139 55 60 
				112 110 109 47 
				102 107 129 42 
				50 65 74 54 
				72 105 138 38 
				37 106 46 132 
				109 67 92 108 
				106 130 107 43 
				34 80 137 128 
				122 45 120 139 
				139 53 104 122 
				84 41 121 141 
				100 39 110 112 
				138 101 140 38 
				134 111 140 77 
				3 135 73 75 
				53 69 78 57 
				50 57 78 65 
				55 61 133 66 
				51 54 74 63 
				86 136 21 117 
				103 122 104 44 
				93 48 110 39 
				53 60 97 69 
				55 66 97 60 
				28 29 131 114 
				46 105 72 132 
				110 48 67 109 
				59 83 127 126 
				37 118 86 124 
				107 130 68 129 
				77 140 101 76 
				106 43 73 46 
				115 70 128 137 
				74 65 6 0 
				97 66 9 1 
				92 2 11 108 
				91 12 2 92 
				78 69 8 7 
				133 108 11 10 
				17 16 75 63 
				49 91 92 67 
			</DataArray>
			<DataArray type="UInt32" Name="offsets" Format="ascii">
				3
				6
				9
				12
				16
				20
				24
				28
				32
				36
				40
				44
				48
				52
				56
				60
				64
				68
				72
				76
				80
				84
				88
				92
				96
				100
				104
				108
				112
				116
				120
				124
				128
				132
				136
				140
				144
				148
				152
				156
				160
				164
				168
				172
				176
				180
				184
				188
				192
				196
				200
				204
				208
				212
				216
				220
				224
				228
				232
				236
				240
				244
				248
				252
				256
				260
				264
				268
				272
				276
				280
				284
				288
				292
				296
				300
				304
				308
				312
				316
				320
				324
				328
				332
				336
				340
				344
				348
				352
				356
				360
				364
				368
				372
				376
				380
				384
				388
				392
				396
				400
				404
				408
				412
				416
				420
				424
				428
				432
				436
				440
				444
				448
				452
				456
				460
				464
				468
				472
				476
				480
				484
				488
				492
				496
				500
				504
				508
			</DataArray>
			<DataArray type="Int32" Name="types" Format="ascii">
				5
				5
				5
				5
				9
				9
				9
				9
				9
				9
				9
				9
				9
				9
				9
				9
				9
				9
				9
				9
				9
				9
				9
				9
				9
				9
				9
				9
				9
				9
				9
				9
				9
				9
				9
				9
				9
				9
				9
				9
				9
				9
				9
				9
				9
				9
				9
				9
				9
				9
				9
				9
				9
				9
				9
				9
				9
				9
				9
				9
				9
				9
				9
				9
				9
				9
				9
				9
				9
				9
				9
				9
				9
				9
				9
				9
				9
				9
				9
				9
				9
				9
				9
				9
				9
				9
				9
				9
				9
				9
				9
				9
				9
				9
				9
				9
				9
				9
				9
				9
				9
				9
				9
				9
				9
				9
				9
				9
				9
				9
				9
				9
				9
				9
				9
				9
				9
				9
				9
				9
				9
				9
				9
				9
				9
				9
				9
				9
			</DataArray>
		</Cells>
	</Piece>
</UnstructuredGrid>
</VTKFile>