<VTKFile type="UnstructuredGrid" version="0.1" byte_order="LittleEndian">
<UnstructuredGrid>
	<Piece NumberOfPoints="1994" NumberOfCells="1930">
		<PointData Scalars="density" Vectors="velocity">
			<DataArray type="Float64" Name="density" Format="ascii">
				0.258661
				0.18196
				0.267699
				0.20082
				0.25012
				0.249762
				0.257859
				0.257157
				0.255458
				0.252453
				0.248736
				0.244744
				0.239304
				0.232266
				0.224737
				0.21674
				0.208141
				0.200056
				0.192349
				0.185342
				0.182078
				0.183924
				0.18869
				0.193793
				0.198733
				0.207399
				0.217369
				0.225594
				0.233103
				0.240247
				0.246926
				0.253481
				0.25851
				0.262265
				0.265212
				0.267163
				0.267591
				0.266364
				0.263833
				0.261054
				0.257021
				0.251283
				0.244998
				0.238846
				0.23284
				0.22587
				0.218574
				0.213536
				0.208748
				0.203731
				0.201282
				0.200839
				0.203099
				0.209191
				0.215894
				0.222965
				0.229612
				0.236437
				0.242612
				0.24775
				0.251952
				0.255187
				0.257265
				0.258481
				0.259337
				0.259528
				0.250132
				0.250144
				0.250145
				0.250156
				0.250164
				0.250169
				0.250171
				0.250176
				0.25018
				0.250182
				0.250183
				0.250184
				0.250167
				0.250169
				0.250167
				0.250164
				0.250162
				0.250162
				0.250158
				0.25015
				0.250144
				0.250129
				0.250128
				0.250123
				0.25011
				0.250103
				0.250103
				0.250087
				0.250028
				0.249927
				0.249818
				0.249797
				0.249881
				0.249949
				0.249962
				0.249945
				0.249919
				0.249892
				0.249864
				0.249834
				0.249806
				0.249787
				0.249773
				0.249763
				0.24976
				0.249771
				0.249781
				0.249799
				0.249812
				0.249839
				0.249865
				0.249891
				0.249917
				0.249943
				0.249969
				0.249995
				0.250017
				0.250039
				0.250058
				0.250076
				0.250092
				0.250107
				0.250175
				0.249869
				0.250172
				0.250116
				0.249685
				0.249975
				0.250248
				0.250381
				0.250005
				0.250254
				0.249365
				0.24957
				0.250181
				0.250046
				0.250952
				0.250077
				0.250299
				0.247638
				0.249408
				0.250937
				0.25063
				0.248835
				0.252222
				0.252076
				0.24627
				0.249849
				0.243343
				0.250041
				0.247707
				0.253322
				0.252729
				0.246395
				0.254812
				0.255959
				0.24693
				0.251804
				0.250189
				0.250054
				0.250121
				0.24985
				0.243561
				0.253289
				0.249658
				0.235155
				0.250021
				0.243502
				0.238444
				0.246653
				0.24905
				0.227964
				0.250113
				0.248499
				0.255757
				0.254289
				0.252766
				0.261069
				0.261056
				0.250399
				0.249822
				0.250018
				0.250258
				0.250077
				0.24977
				0.249835
				0.249943
				0.249826
				0.250121
				0.249986
				0.250139
				0.250081
				0.256998
				0.240249
				0.250177
				0.247972
				0.250261
				0.249743
				0.24924
				0.250859
				0.24986
				0.250157
				0.250145
				0.250435
				0.225485
				0.250015
				0.250111
				0.249872
				0.250166
				0.249542
				0.250146
				0.250601
				0.250019
				0.250241
				0.256026
				0.247285
				0.24948
				0.244315
				0.249837
				0.25403
				0.250492
				0.250076
				0.233848
				0.251766
				0.24975
				0.232336
				0.246446
				0.236994
				0.258417
				0.249886
				0.216518
				0.250225
				0.25113
				0.250088
				0.251587
				0.25033
				0.247705
				0.250307
				0.258836
				0.250525
				0.249252
				0.248827
				0.250085
				0.246013
				0.250078
				0.264657
				0.249781
				0.226042
				0.243805
				0.250129
				0.249854
				0.249707
				0.249895
				0.250154
				0.249619
				0.253082
				0.250128
				0.250034
				0.248836
				0.250179
				0.249882
				0.250599
				0.24966
				0.252126
				0.249264
				0.250198
				0.250117
				0.249796
				0.24977
				0.250102
				0.246423
				0.249935
				0.248141
				0.249904
				0.249794
				0.254166
				0.250272
				0.250145
				0.250232
				0.212183
				0.230413
				0.249968
				0.249722
				0.250121
				0.235654
				0.249944
				0.250141
				0.24984
				0.250143
				0.249249
				0.245713
				0.250117
				0.250153
				0.256563
				0.249983
				0.250067
				0.258334
				0.256446
				0.250116
				0.250293
				0.250029
				0.250484
				0.249477
				0.25177
				0.2487
				0.2501
				0.249664
				0.249876
				0.250126
				0.249696
				0.249392
				0.250084
				0.261575
				0.249999
				0.252856
				0.263814
				0.24748
				0.25162
				0.243411
				0.249854
				0.25137
				0.232942
				0.249667
				0.250277
				0.250115
				0.250031
				0.255689
				0.249822
				0.249958
				0.249398
				0.249389
				0.237212
				0.253291
				0.249978
				0.250126
				0.252679
				0.249879
				0.250343
				0.250208
				0.250289
				0.250031
				0.23978
				0.248312
				0.25014
				0.250736
				0.250028
				0.24992
				0.250161
				0.250114
				0.250111
				0.24632
				0.249813
				0.249853
				0.249917
				0.225319
				0.250136
				0.249723
				0.251068
				0.251221
				0.250093
				0.250334
				0.250097
				0.240565
				0.249879
				0.25017
				0.256381
				0.249899
				0.249943
				0.249544
				0.250136
				0.250172
				0.250468
				0.250405
				0.250116
				0.249817
				0.248639
				0.249031
				0.244078
				0.250839
				0.250483
				0.24959
				0.218708
				0.248904
				0.250069
				0.249218
				0.250863
				0.249698
				0.248994
				0.254732
				0.250048
				0.250131
				0.250016
				0.250121
				0.25003
				0.214556
				0.25119
				0.250121
				0.253709
				0.250168
				0.255581
				0.251612
				0.253127
				0.250045
				0.250903
				0.248155
				0.203478
				0.209321
				0.237258
				0.250004
				0.250497
				0.25083
				0.250121
				0.241239
				0.250359
				0.249788
				0.249899
				0.250063
				0.258547
				0.250092
				0.243676
				0.250228
				0.249482
				0.220372
				0.250285
				0.266149
				0.250155
				0.259446
				0.250142
				0.257405
				0.249385
				0.250174
				0.250111
				0.250099
				0.250186
				0.249764
				0.250225
				0.249143
				0.253719
				0.250674
				0.242522
				0.250659
				0.249677
				0.247437
				0.249914
				0.250481
				0.249878
				0.249806
				0.249958
				0.250009
				0.249888
				0.248332
				0.250761
				0.250116
				0.250738
				0.229582
				0.249611
				0.233884
				0.260793
				0.249913
				0.250057
				0.249847
				0.251578
				0.253504
				0.250135
				0.250025
				0.248423
				0.252124
				0.249855
				0.250162
				0.25011
				0.250141
				0.248809
				0.249857
				0.250116
				0.249864
				0.250399
				0.250106
				0.247837
				0.24997
				0.250413
				0.250023
				0.250094
				0.249705
				0.25441
				0.250227
				0.251159
				0.252042
				0.250202
				0.250079
				0.247645
				0.249887
				0.249855
				0.24988
				0.250175
				0.250731
				0.250165
				0.2502
				0.250143
				0.250113
				0.249981
				0.250321
				0.250073
				0.252795
				0.247758
				0.249985
				0.249614
				0.241152
				0.250094
				0.251689
				0.248651
				0.25408
				0.241165
				0.249315
				0.249751
				0.236457
				0.24835
				0.249571
				0.250181
				0.238107
				0.245781
				0.249141
				0.249043
				0.243354
				0.249744
				0.249607
				0.250109
				0.249728
				0.239664
				0.246542
				0.250006
				0.250147
				0.250105
				0.233697
				0.24961
				0.214434
				0.244724
				0.249931
				0.25844
				0.249975
				0.249543
				0.250297
				0.250518
				0.256927
				0.25031
				0.250073
				0.252432
				0.249924
				0.249397
				0.248982
				0.250549
				0.250121
				0.250681
				0.249999
				0.249674
				0.251605
				0.239696
				0.243106
				0.249078
				0.248984
				0.25015
				0.250113
				0.249643
				0.266471
				0.250118
				0.235309
				0.227578
				0.250119
				0.250267
				0.250117
				0.247557
				0.249839
				0.249794
				0.250113
				0.249965
				0.25003
				0.249876
				0.258335
				0.249502
				0.251079
				0.249987
				0.251499
				0.249808
				0.250168
				0.249817
				0.250148
				0.228529
				0.25033
				0.249803
				0.255398
				0.254284
				0.252211
				0.251124
				0.251442
				0.250007
				0.249624
				0.250327
				0.200101
				0.24934
				0.249739
				0.249886
				0.249687
				0.250599
				0.250295
				0.24976
				0.248586
				0.250304
				0.213883
				0.256739
				0.249234
				0.249827
				0.25122
				0.249828
				0.249734
				0.250028
				0.250069
				0.250344
				0.249966
				0.23905
				0.249489
				0.249757
				0.249326
				0.250113
				0.249913
				0.249213
				0.251798
				0.249302
				0.225347
				0.250127
				0.251253
				0.252944
				0.249801
				0.251111
				0.249815
				0.250182
				0.25023
				0.263702
				0.256026
				0.254743
				0.249649
				0.249363
				0.249842
				0.249992
				0.25015
				0.249823
				0.24218
				0.263455
				0.250209
				0.244075
				0.250143
				0.249942
				0.246316
				0.252692
				0.255124
				0.247144
				0.248944
				0.249839
				0.24741
				0.25
				0.252301
				0.249581
				0.249635
				0.249751
				0.250317
				0.250278
				0.249595
				0.250061
				0.249932
				0.250126
				0.252177
				0.257754
				0.252441
				0.248407
				0.250145
				0.251147
				0.250141
				0.258757
				0.257802
				0.249945
				0.205996
				0.250336
				0.249873
				0.250118
				0.250051
				0.250142
				0.250176
				0.250128
				0.249759
				0.250157
				0.218516
				0.249953
				0.25036
				0.242445
				0.252889
				0.25537
				0.250139
				0.2495
				0.226231
				0.250155
				0.250176
				0.261837
				0.25022
				0.250193
				0.250468
				0.249891
				0.250637
				0.249995
				0.250041
				0.244025
				0.249625
				0.249964
				0.250299
				0.250666
				0.249456
				0.250144
				0.250072
				0.25036
				0.245618
				0.252867
				0.256756
				0.249936
				0.24987
				0.250105
				0.250067
				0.250126
				0.251762
				0.248855
				0.217024
				0.250112
				0.248081
				0.250086
				0.250258
				0.249796
				0.251174
				0.249967
				0.250397
				0.241149
				0.250202
				0.248793
				0.250233
				0.265428
				0.250847
				0.249876
				0.24991
				0.223634
				0.250131
				0.249521
				0.249892
				0.245991
				0.250272
				0.250218
				0.250188
				0.249651
				0.248577
				0.248385
				0.255044
				0.246764
				0.255757
				0.250573
				0.249791
				0.250284
				0.250035
				0.2507
				0.250127
				0.250123
				0.244771
				0.242868
				0.250166
				0.250721
				0.24939
				0.249898
				0.249966
				0.246704
				0.249808
				0.24992
				0.250098
				0.244326
				0.250264
				0.250308
				0.250226
				0.24971
				0.246584
				0.249818
				0.223819
				0.248829
				0.259142
				0.248624
				0.248651
				0.250111
				0.261534
				0.250087
				0.250115
				0.249928
				0.250072
				0.250268
				0.250149
				0.242895
				0.250009
				0.248638
				0.250159
				0.249954
				0.249733
				0.250119
				0.252051
				0.247979
				0.25495
				0.249988
				0.25006
				0.254534
				0.249922
				0.249836
				0.249069
				0.235678
				0.250118
				0.250105
				0.250142
				0.249395
				0.249992
				0.250122
				0.249911
				0.250166
				0.243505
				0.246605
				0.249063
				0.248946
				0.24954
				0.248863
				0.249955
				0.249717
				0.250769
				0.250122
				0.250196
				0.249704
				0.250473
				0.249959
				0.253849
				0.250032
				0.250142
				0.250187
				0.249816
				0.250106
				0.246462
				0.201504
				0.25279
				0.249886
				0.250117
				0.249795
				0.253749
				0.253129
				0.249819
				0.249457
				0.249856
				0.232713
				0.240631
				0.245451
				0.25006
				0.250114
				0.249928
				0.250214
				0.249874
				0.248111
				0.250059
				0.249944
				0.253952
				0.250478
				0.25014
				0.233747
				0.244644
				0.248218
				0.249779
				0.249892
				0.250084
				0.24883
				0.250247
				0.251759
				0.244917
				0.249862
				0.263807
				0.249776
				0.250094
				0.206621
				0.250458
				0.250125
				0.250068
				0.250868
				0.234704
				0.250162
				0.250313
				0.250061
				0.250152
				0.253305
				0.250379
				0.249714
				0.2507
				0.249871
				0.250092
				0.250149
				0.249722
				0.251339
				0.189993
				0.235772
				0.24123
				0.249639
				0.24949
				0.218419
				0.229611
				0.250148
				0.218296
				0.250121
				0.240528
				0.24998
				0.231757
				0.249797
				0.250124
				0.256334
				0.249824
				0.25012
				0.250457
				0.249821
				0.23369
				0.250133
				0.249958
				0.239866
				0.25024
				0.250177
				0.253363
				0.249827
				0.254883
				0.250109
				0.257075
				0.250117
				0.250139
				0.250205
				0.25106
				0.265851
				0.260758
				0.250139
				0.25019
				0.249975
				0.250931
				0.250093
				0.252194
				0.255649
				0.249852
				0.249741
				0.250853
				0.249743
				0.250371
				0.25009
				0.250206
				0.250138
				0.251608
				0.249809
				0.249954
				0.258552
				0.235518
				0.250048
				0.250111
				0.250131
				0.249829
				0.250146
				0.249575
				0.262808
				0.250201
				0.250574
				0.250147
				0.257744
				0.255667
				0.248999
				0.25012
				0.221919
				0.248878
				0.249648
				0.259732
				0.25854
				0.229711
				0.250135
				0.21481
				0.230589
				0.250106
				0.249797
				0.249938
				0.250128
				0.249926
				0.255832
				0.250167
				0.249492
				0.250162
				0.250179
				0.249869
				0.249956
				0.250428
				0.24925
				0.250135
				0.24611
				0.250421
				0.24985
				0.249835
				0.250136
				0.251405
				0.252415
				0.244553
				0.250075
				0.249999
				0.197768
				0.247081
				0.24996
				0.250216
				0.249967
				0.247515
				0.206752
				0.251149
				0.234551
				0.24977
				0.250135
				0.250118
				0.250372
				0.249985
				0.249297
				0.250163
				0.24583
				0.247472
				0.249811
				0.190743
				0.250076
				0.207933
				0.25007
				0.249956
				0.255916
				0.215161
				0.250782
				0.251581
				0.258056
				0.251289
				0.244969
				0.25018
				0.249624
				0.267025
				0.251594
				0.253515
				0.267359
				0.249889
				0.250068
				0.250034
				0.250098
				0.249492
				0.248606
				0.253403
				0.24992
				0.24993
				0.250176
				0.254678
				0.249998
				0.250123
				0.256774
				0.249713
				0.257085
				0.260371
				0.253076
				0.252468
				0.250095
				0.249804
				0.249577
				0.250073
				0.247778
				0.25332
				0.247203
				0.219562
				0.249705
				0.249941
				0.252792
				0.256895
				0.250161
				0.204027
				0.250157
				0.242772
				0.249796
				0.23775
				0.215045
				0.25064
				0.250833
				0.227695
				0.250711
				0.25028
				0.235414
				0.249047
				0.238176
				0.250397
				0.249797
				0.250773
				0.253563
				0.250222
				0.250115
				0.238815
				0.245668
				0.248648
				0.249825
				0.250077
				0.255643
				0.250122
				0.249948
				0.249906
				0.219213
				0.250088
				0.246456
				0.2232
				0.251726
				0.24755
				0.251921
				0.25012
				0.261441
				0.248652
				0.249964
				0.248164
				0.249901
				0.249972
				0.250065
				0.250576
				0.250243
				0.250243
				0.250922
				0.249846
				0.249446
				0.250334
				0.250275
				0.247682
				0.239613
				0.250111
				0.262896
				0.251411
				0.252344
				0.250174
				0.250117
				0.25009
				0.249788
				0.249607
				0.247023
				0.249365
				0.248754
				0.249877
				0.250116
				0.224515
				0.249658
				0.249532
				0.249955
				0.250487
				0.250162
				0.260611
				0.250864
				0.249725
				0.25018
				0.248793
				0.24177
				0.232931
				0.250946
				0.249548
				0.250106
				0.248768
				0.224079
				0.250206
				0.250687
				0.250144
				0.250094
				0.253067
				0.266758
				0.250148
				0.253891
				0.249921
				0.250419
				0.250483
				0.249674
				0.249798
				0.245751
				0.249277
				0.250709
				0.250131
				0.25014
				0.25016
				0.250092
				0.259303
				0.244473
				0.250109
				0.264342
				0.24995
				0.257051
				0.249898
				0.249085
				0.248659
				0.251083
				0.241211
				0.249166
				0.250466
				0.250979
				0.250157
				0.249794
				0.249078
				0.257921
				0.250025
				0.249867
				0.252
				0.249648
				0.251824
				0.247849
				0.248795
				0.250036
				0.250571
				0.25513
				0.249761
				0.250214
				0.249112
				0.249843
				0.249617
				0.254794
				0.249861
				0.250014
				0.249286
				0.261182
				0.250161
				0.250134
				0.250168
				0.250019
				0.245736
				0.250429
				0.249585
				0.250169
				0.251209
				0.250713
				0.250054
				0.254663
				0.249533
				0.25009
				0.249888
				0.249863
				0.247505
				0.247145
				0.251026
				0.25004
				0.250701
				0.257678
				0.250071
				0.250138
				0.250016
				0.24977
				0.24982
				0.250291
				0.20542
				0.257428
				0.250159
				0.250148
				0.249755
				0.249916
				0.250134
				0.250331
				0.207656
				0.208402
				0.249777
				0.24981
				0.250146
				0.220182
				0.250007
				0.250708
				0.250406
				0.25905
				0.249657
				0.249792
				0.249948
				0.251009
				0.249932
				0.250111
				0.250052
				0.234434
				0.244811
				0.238045
				0.249931
				0.247236
				0.249606
				0.249792
				0.24037
				0.213419
				0.250142
				0.252272
				0.25029
				0.25055
				0.239336
				0.250096
				0.250171
				0.247151
				0.23845
				0.250201
				0.230881
				0.227022
				0.250117
				0.250127
				0.251253
				0.249706
				0.251412
				0.25011
				0.240619
				0.249635
				0.248541
				0.239523
				0.249955
				0.250253
				0.249197
				0.246004
				0.24986
				0.249493
				0.250108
				0.247224
				0.250185
				0.247903
				0.254022
				0.249479
				0.24996
				0.249909
				0.250285
				0.249485
				0.248623
				0.243008
				0.258704
				0.252592
				0.250033
				0.249703
				0.249925
				0.250211
				0.251009
				0.250188
				0.250157
				0.257985
				0.250529
				0.250571
				0.249565
				0.249902
				0.252966
				0.249962
				0.249747
				0.249506
				0.249798
				0.250144
				0.253676
				0.250297
				0.252053
				0.250135
				0.235442
				0.24999
				0.249778
				0.25017
				0.249947
				0.249663
				0.249829
				0.250127
				0.249756
				0.250402
				0.248566
				0.250853
				0.250592
				0.249881
				0.250338
				0.248814
				0.250032
				0.24974
				0.245299
				0.249997
				0.250119
				0.249791
				0.254504
				0.24685
				0.250203
				0.233967
				0.25549
				0.249555
				0.250139
				0.250667
				0.250071
				0.250671
				0.249806
				0.235039
				0.253511
				0.250228
				0.249905
				0.249693
				0.248997
				0.25015
				0.237257
				0.238415
				0.250116
				0.250088
				0.265426
				0.250088
				0.250119
				0.250114
				0.250135
				0.249823
				0.250124
				0.250077
				0.249784
				0.249859
				0.249296
				0.245087
				0.204822
				0.254894
				0.249832
				0.250116
				0.249067
				0.251106
				0.249665
				0.24998
				0.215994
				0.249896
				0.250258
				0.256589
				0.250116
				0.250163
				0.227463
				0.250187
				0.250082
				0.250074
				0.250121
				0.251923
				0.250152
				0.222785
				0.249696
				0.248526
				0.242291
				0.249072
				0.244985
				0.246088
				0.255161
				0.249908
				0.247612
				0.250115
				0.25022
				0.251609
				0.250086
				0.249231
				0.24938
				0.254199
				0.254547
				0.248905
				0.25014
				0.250158
				0.251141
				0.251825
				0.224262
				0.25011
				0.258408
				0.224182
				0.249706
				0.250137
				0.250252
				0.249558
				0.229479
				0.249428
				0.249803
				0.252495
				0.250165
				0.250302
				0.249591
				0.250483
				0.249742
				0.236434
				0.249475
				0.250023
				0.251888
				0.2496
				0.250061
				0.249943
				0.249859
				0.249851
				0.250589
				0.250977
				0.250116
				0.252383
				0.250156
				0.25006
				0.249759
				0.257087
				0.256533
				0.250127
				0.251338
				0.249925
				0.249295
				0.250343
				0.249189
				0.250099
				0.249395
				0.250155
				0.250091
				0.250121
				0.25135
				0.250165
				0.249776
				0.249694
				0.248021
				0.244626
				0.250118
				0.249865
				0.252807
				0.250407
				0.246573
				0.250198
				0.250127
				0.250106
				0.250572
				0.250352
				0.248216
				0.246836
				0.250208
				0.250025
				0.247731
				0.250332
				0.249778
				0.249991
				0.249915
				0.252198
				0.250104
				0.2501
				0.242746
				0.249858
				0.249942
				0.250457
				0.249848
				0.249397
				0.253655
				0.249874
				0.249894
				0.263537
				0.250153
				0.249886
				0.250402
				0.255555
				0.231967
				0.250116
				0.250114
				0.248551
				0.249146
				0.249998
				0.249828
				0.2412
				0.252068
				0.250261
				0.250823
				0.24999
				0.249808
				0.251012
				0.250159
				0.2503
				0.246482
				0.249814
				0.249176
				0.250136
				0.250076
				0.249984
				0.254805
				0.250704
				0.244855
				0.250602
				0.257807
				0.250099
				0.250367
				0.249965
				0.191163
				0.249953
				0.249793
				0.25012
				0.261243
				0.249962
				0.249947
				0.248756
				0.248002
				0.243595
				0.249962
				0.250018
				0.250014
				0.229426
				0.250114
				0.247044
				0.249464
				0.249912
				0.213552
				0.249973
				0.250128
				0.250195
				0.250149
				0.255168
				0.251039
				0.249887
				0.251506
				0.250385
				0.249955
				0.238577
				0.252378
				0.248936
				0.251713
				0.249133
				0.250275
				0.255845
				0.250206
				0.249494
				0.249385
				0.250116
				0.249781
				0.250144
				0.250102
				0.249683
				0.249828
				0.249834
				0.241711
				0.250932
				0.266529
				0.249858
				0.250634
				0.249758
				0.252117
				0.249953
				0.25012
				0.257602
				0.250546
				0.249713
				0.250148
				0.248833
				0.220132
				0.250082
				0.249708
				0.250194
				0.249898
				0.25106
				0.249341
				0.249428
				0.252204
				0.250211
				0.249644
				0.25016
				0.250352
				0.249797
				0.247278
				0.250286
				0.250138
				0.242769
				0.249837
				0.250062
				0.244081
				0.250418
				0.250027
				0.245663
				0.24965
				0.25012
				0.25027
				0.255511
				0.249819
				0.249854
				0.243034
				0.249637
				0.249303
				0.249945
				0.254949
				0.250137
				0.251922
				0.249842
				0.248541
				0.250116
				0.248432
				0.25686
				0.234852
				0.228172
				0.249992
				0.249708
				0.250119
				0.25003
				0.250121
				0.249104
				0.251472
				0.2264
				0.249833
				0.228159
				0.244639
				0.250068
				0.250059
				0.249365
				0.250075
				0.249927
				0.250071
				0.2504
				0.249865
				0.250273
				0.250015
				0.249742
				0.249679
				0.249984
				0.263562
				0.250556
				0.250138
				0.251338
				0.250124
				0.250061
				0.249208
				0.249822
				0.250234
				0.250157
				0.2512
				0.249655
				0.249246
				0.250167
				0.257031
				0.24991
				0.250151
				0.249875
				0.250098
				0.247636
				0.254265
				0.250313
				0.250156
				0.249276
				0.24005
				0.249735
				0.249827
				0.250139
				0.251896
				0.247207
				0.24904
				0.259188
				0.250277
				0.24974
				0.250045
				0.250159
				0.245901
				0.245715
				0.250569
				0.25
				0.233927
				0.249887
				0.243952
				0.249048
				0.249814
				0.253633
				0.247155
				0.250547
				0.249998
				0.24996
				0.250241
				0.248787
				0.250744
				0.250062
				0.250207
				0.250181
				0.250075
				0.249802
				0.249781
				0.249589
				0.246115
				0.249716
				0.249749
				0.249205
				0.250096
				0.249937
				0.232464
				0.250142
				0.2503
				0.251882
				0.254922
				0.249261
				0.252186
				0.250308
				0.249966
				0.249948
				0.249902
				0.25048
				0.250133
				0.256983
				0.2498
				0.249893
				0.249919
				0.252332
				0.250116
				0.25025
				0.249608
				0.242419
				0.250137
				0.251331
				0.251208
				0.249144
				0.249807
				0.250137
				0.250223
				0.250546
				0.2501
				0.250011
				0.250351
				0.250176
				0.252553
				0.249943
				0.249899
				0.250153
				0.227818
				0.265436
				0.251878
				0.24337
				0.248131
				0.247643
				0.250113
				0.250288
				0.250023
				0.249818
				0.249917
				0.250142
				0.25016
				0.250081
				0.231493
				0.25037
				0.2529
				0.250203
				0.24999
				0.251038
				0.237745
				0.198097
				0.248521
				0.249937
				0.250171
				0.249807
				0.249214
				0.250128
				0.250146
				0.251276
				0.253401
				0.25
				0.250154
				0.249164
				0.250159
				0.250162
				0.250397
				0.25027
				0.212469
				0.250098
				0.248096
				0.250364
				0.242459
				0.250874
				0.230763
				0.250163
				0.259298
				0.250053
				0.250257
				0.250114
				0.249589
				0.256476
				0.250895
				0.244105
				0.250446
				0.250109
				0.252832
				0.250198
				0.257427
				0.245892
				0.242286
				0.250854
				0.250461
				0.249484
				0.249921
				0.250011
				0.253158
				0.249791
				0.245806
				0.249737
				0.24972
				0.249559
				0.249608
				0.249842
				0.24998
				0.250273
				0.250129
				0.246618
				0.249087
				0.251689
				0.240811
				0.249476
				0.25126
				0.250519
				0.24982
				0.249658
				0.250137
				0.246262
				0.248306
				0.252516
				0.25373
				0.249889
				0.250103
				0.248011
				0.24909
				0.251578
				0.249811
				0.250213
				0.250177
				0.25378
				0.240796
				0.250063
				0.249382
				0.249252
				0.248296
				0.250143
				0.259385
				0.25031
				0.250152
				0.250168
				0.250067
				0.249643
				0.236068
				0.250152
				0.248977
				0.25615
				0.249782
				0.250122
				0.250321
				0.245902
				0.250171
				0.249925
				0.250151
				0.25028
				0.249494
				0.25752
				0.192904
				0.250128
				0.249372
				0.251943
				0.250253
				0.250567
				0.252593
				0.250129
				0.249907
				0.249283
				0.248707
				0.248259
				0.250248
				0.250296
				0.262997
				0.250139
				0.239959
				0.250156
				0.249834
				0.249883
				0.250104
				0.250104
				0.254152
				0.249614
				0.265484
				0.253713
				0.250185
				0.252269
				0.249693
				0.209602
				0.25027
				0.250071
				0.26541
				0.250031
				0.250159
				0.250047
				0.249902
				0.250085
				0.249632
				0.250044
				0.221979
				0.250116
				0.259407
				0.249169
				0.258168
				0.250236
				0.23863
				0.250336
				0.248633
				0.250105
				0.248459
				0.248315
				0.24992
				0.250091
				0.252923
				0.221265
				0.25008
				0.250563
				0.250914
				0.250193
				0.249821
				0.250045
				0.250106
				0.250108
				0.249791
				0.247179
				0.250158
				0.250016
				0.250061
				0.249869
			</DataArray>
			<DataArray type="Float64" Name="mach-number" Format="ascii">
				0.0366871
				0.87076
				0.0316732
				0.751688
				0.379466
				0.378513
				0.071221
				0.109116
				0.150864
				0.202848
				0.264043
				0.328075
				0.392368
				0.458275
				0.526188
				0.594527
				0.663136
				0.725989
				0.782802
				0.834566
				0.864864
				0.859665
				0.829501
				0.794542
				0.759284
				0.703389
				0.638644
				0.577488
				0.516213
				0.454031
				0.390883
				0.32732
				0.266449
				0.201316
				0.135612
				0.0732881
				0.0573152
				0.110439
				0.16784
				0.22884
				0.292431
				0.356643
				0.417767
				0.473648
				0.527417
				0.581952
				0.632485
				0.67156
				0.706682
				0.738278
				0.751371
				0.747635
				0.725413
				0.679785
				0.627312
				0.567013
				0.503737
				0.435755
				0.367959
				0.300588
				0.233127
				0.168847
				0.113925
				0.0691673
				0.0337704
				0.0139559
				0.379406
				0.379362
				0.379364
				0.379318
				0.379314
				0.379335
				0.379367
				0.379393
				0.379433
				0.379485
				0.379541
				0.379616
				0.379703
				0.379749
				0.379832
				0.379903
				0.379965
				0.380032
				0.380095
				0.380125
				0.380156
				0.380123
				0.38016
				0.380192
				0.380179
				0.380209
				0.380324
				0.380437
				0.380283
				0.379714
				0.378937
				0.379077
				0.380214
				0.380589
				0.380663
				0.380578
				0.380496
				0.380445
				0.380387
				0.380298
				0.380206
				0.380208
				0.380273
				0.380327
				0.380384
				0.380436
				0.380463
				0.38054
				0.380535
				0.38055
				0.38052
				0.380461
				0.380383
				0.380296
				0.38021
				0.380111
				0.379988
				0.379884
				0.379786
				0.379693
				0.379606
				0.379531
				0.378751
				0.381697
				0.379003
				0.379619
				0.383588
				0.379003
				0.378315
				0.376546
				0.380728
				0.377884
				0.387329
				0.385109
				0.369709
				0.37999
				0.369944
				0.37968
				0.377761
				0.405872
				0.386007
				0.351282
				0.374863
				0.394293
				0.356288
				0.356106
				0.418959
				0.381799
				0.448715
				0.381796
				0.404705
				0.271943
				0.351316
				0.414612
				0.326765
				0.309807
				0.412198
				0.358099
				0.378734
				0.37987
				0.379643
				0.381919
				0.445702
				0.32436
				0.383841
				0.519704
				0.379302
				0.44584
				0.489547
				0.414781
				0.390663
				0.58022
				0.379609
				0.396477
				0.222685
				0.319062
				0.349035
				0.234963
				0.235815
				0.376293
				0.38235
				0.381104
				0.37789
				0.379977
				0.38222
				0.381516
				0.381201
				0.381913
				0.379804
				0.380346
				0.379623
				0.379611
				0.184952
				0.475064
				0.378617
				0.402261
				0.377865
				0.383136
				0.388806
				0.371559
				0.372363
				0.379308
				0.379183
				0.366377
				0.599864
				0.380332
				0.379808
				0.37815
				0.37888
				0.385226
				0.379222
				0.374114
				0.380734
				0.378178
				0.306895
				0.40826
				0.385954
				0.43278
				0.382384
				0.274747
				0.375195
				0.378316
				0.531774
				0.347673
				0.383024
				0.549774
				0.416597
				0.50345
				0.176248
				0.381969
				0.670977
				0.378112
				0.368367
				0.379862
				0.362876
				0.377696
				0.398827
				0.377642
				0.273126
				0.377479
				0.388288
				0.392845
				0.380019
				0.421431
				0.371059
				0.167338
				0.382277
				0.595317
				0.446116
				0.379746
				0.375445
				0.384208
				0.381208
				0.379168
				0.384393
				0.345846
				0.379411
				0.379994
				0.392025
				0.378769
				0.381506
				0.374179
				0.384101
				0.357013
				0.38819
				0.378682
				0.379257
				0.382297
				0.382399
				0.379773
				0.418148
				0.381305
				0.399856
				0.381464
				0.382406
				0.333586
				0.377751
				0.379324
				0.378102
				0.702763
				0.55741
				0.380666
				0.383026
				0.379284
				0.515552
				0.379664
				0.379697
				0.38218
				0.379072
				0.388224
				0.425849
				0.379739
				0.379333
				0.303034
				0.374646
				0.380099
				0.0908493
				0.226909
				0.379635
				0.377858
				0.38051