<VTKFile type="UnstructuredGrid" version="0.1" byte_order="LittleEndian">
<UnstructuredGrid>
	<Piece NumberOfPoints="80" NumberOfCells="128">
		<CellData Scalars="density" Vectors="velocity">
			<DataArray type="Float64" Name="density" Format="ascii">
				1.01021
				1.00575
				0.988369
				1.00067
				0.910953
				0.970331
				0.831763
				0.910439
				0.838798
				0.888168
				0.929652
				0.93406
				1.01936
				0.999435
				1.0618
				1.04829
				1.06123
				1.06498
				1.01742
				1.04739
				0.925579
				0.997299
				0.830327
				0.929731
				0.818533
				0.879883
				0.899472
				0.89993
				0.98029
				0.96253
				1.01097
				0.99902
				0.999879
				1.00051
				1.00318
				1.01437
				0.993736
				0.998189
				0.985384
				0.977294
				0.986545
				0.966061
				0.99689
				0.977059
				1.0087
				0.999369
				1.01532
				1.01732
				1.01502
				1.02347
				1.00778
				1.01665
				0.99522
				0.997853
				0.984079
				0.974417
				0.982508
				0.96235
				0.991026
				0.973608
				1.00113
				0.995707
				1.00057
				1.0134
				0.998732
				0.998042
				1.001
				0.999954
				0.998081
				0.999915
				0.996266
				0.999008
				0.997119
				0.998683
				1.00005
				0.999648
				1.00301
				1.00117
				1.00456
				1.00229
				1.00446
				1.00265
				1.00268
				1.00217
				0.999446
				1.00089
				0.996263
				0.999166
				0.995344
				0.99804
				0.997409
				0.99838
				1.00081
				0.999487
				0.999131
				0.999654
				0.998822
				0.996013
				0.999736
				1.00029
				0.999768
				0.999609
				0.999805
				0.999547
				0.999982
				0.999664
				1.00024
				1.00004
				1.00045
				1.00048
				1.00056
				1.00076
				1.00057
				1.00087
				1.00048
				1.00077
				1.00029
				1.00049
				1.00004
				1.00004
				0.999852
				0.999618
				0.999774
				0.999434
				0.999703
				0.99943
				0.998815
				1.00007
			</DataArray>
			<DataArray type="Float64" Name="mach-number" Format="ascii">
				0.118051
				0.118806
				0.321211
				0.250858
				0.531289
				0.416411
				0.701435
				0.561024
				0.699754
				0.614011
				0.53499
				0.541292
				0.328379
				0.404475
				0.130928
				0.25863
				0.133507
				0.154189
				0.332608
				0.260972
				0.541989
				0.408525
				0.714008
				0.548084
				0.724091
				0.625891
				0.552536
				0.576546
				0.340763
				0.431281
				0.132402
				0.263896
				0.311072
				0.206128
				0.367012
				0.333102
				0.395303
				0.380899
				0.420515
				0.431338
				0.420503
				0.457505
				0.393646
				0.433736
				0.360872
				0.377742
				0.337487
				0.324405
				0.338056
				0.272382
				0.36248
				0.32569
				0.396378
				0.380509
				0.42427
				0.438226
				0.424224
				0.463342
				0.396637
				0.43633
				0.364547
				0.382797
				0.309997
				0.332812
				0.355929
				0.352802
				0.378715
				0.37548
				0.385224
				0.381393
				0.390614
				0.384865
				0.388635
				0.385189
				0.380784
				0.381946
				0.372831
				0.377555
				0.36955
				0.374655
				0.369729
				0.373418
				0.373266
				0.374772
				0.381527
				0.377832
				0.389538
				0.382351
				0.391106
				0.3855
				0.384314
				0.384647
				0.375366
				0.380177
				0.352353
				0.37318
				0.376695
				0.361056
				0.380997
				0.381972
				0.381246
				0.381661
				0.381052
				0.381995
				0.38055
				0.381532
				0.379883
				0.380469
				0.379333
				0.379313
				0.379015
				0.378554
				0.379003
				0.378259
				0.379295
				0.378523
				0.379823
				0.379274
				0.380489
				0.380427
				0.381018
				0.381494
				0.381273
				0.381964
				0.381117
				0.38168
				0.376859
				0.382141
			</DataArray>
			<DataArray type="Float64" Name="pressure" Format="ascii">
				5.16876
				5.11634
				4.9222
				5.03869
				4.38488
				4.77394
				3.84499
				4.36328
				3.87177
				4.21838
				4.45419
				4.51428
				5.06254
				4.95134
				5.37004
				5.2862
				5.36562
				5.41242
				5.0489
				5.2801
				4.42673
				4.93696
				3.81687
				4.48607
				3.75964
				4.16631
				4.30885
				4.29607
				4.86873
				4.72
				5.15266
				5.01647
				5.00715
				5.08452
				4.97782
				5.0576
				4.90683
				4.94279
				4.84621
				4.7981
				4.85358
				4.7202
				4.92568
				4.79189
				5.00708
				4.94291
				5.0536
				5.06646
				5.05164
				5.12286
				5.00085
				5.06187
				4.91432
				4.93252
				4.83673
				4.77403
				4.82643
				4.69553
				4.88842
				4.77376
				4.96381
				4.92608
				5.0036
				5.04893
				4.96288
				4.95676
				4.95374
				4.95043
				4.93353
				4.94585
				4.92076
				4.93946
				4.92667
				4.93734
				4.94694
				4.94404
				4.96743
				4.9546
				4.97809
				4.96236
				4.97736
				4.96491
				4.96514
				4.9615
				4.94279
				4.95262
				4.92077
				4.94069
				4.9144
				4.93288
				4.92894
				4.93508
				4.95254
				4.94287
				4.96378
				4.94864
				4.94372
				4.94508
				4.9447
				4.94687
				4.94496
				4.94382
				4.94524
				4.94341
				4.94646
				4.94425
				4.94823
				4.94685
				4.94967
				4.94987
				4.95045
				4.95183
				4.95053
				4.95259
				4.9499
				4.95192
				4.9486
				4.94999
				4.94689
				4.94685
				4.94556
				4.94393
				4.945
				4.94262
				4.94447
				4.94257
				4.94363
				4.94538
			</DataArray>
			<DataArray type="Float64" Name="velocity" NumberOfComponents="3" Format="ascii">
				0.298258 -0.104247 0.0 
				0.31607 0.0250036 0.0 
				0.70924 -0.465126 0.0 
				0.627097 -0.224428 0.0 
				1.27201 -0.533077 0.0 
				1.0169 -0.400336 0.0 
				1.77346 -0.197583 0.0 
				1.4137 -0.336523 0.0 
				1.73737 0.381812 0.0 
				1.58328 0.0090335 0.0 
				1.1992 0.694096 0.0 
				1.35812 0.371462 0.0 
				0.632974 0.590845 0.0 
				0.955822 0.470218 0.0 
				0.276435 0.212032 0.0 
				0.621691 0.292785 0.0 
				0.277729 -0.221438 0.0 
				0.411267 -0.00390851 0.0 
				0.638753 -0.600478 0.0 
				0.624857 -0.300381 0.0 
				1.21274 -0.70438 0.0 
				0.963824 -0.477164 0.0 
				1.76893 -0.389583 0.0 
				1.37414 -0.375465 0.0 
				1.82429 0.208493 0.0 
				1.61148 -0.00129717 0.0 
				1.31451 0.565307 0.0 
				1.44505 0.365238 0.0 
				0.738124 0.512429 0.0 
				1.03977 0.442535 0.0 
				0.314503 0.161786 0.0 
				0.644677 0.271964 0.0 
				0.822285 -0.0475114 0.0 
				0.549667 0.0127351 0.0 
				0.964388 -0.0753778 0.0 
				0.87459 -0.0980142 0.0 
				1.03628 -0.0797189 0.0 
				0.992366 -0.144918 0.0 
				1.10322 -0.0214872 0.0 
				1.12525 -0.112351 0.0 
				1.10148 0.0681735 0.0 
				1.19638 0.0214905 0.0 
				1.02872 0.116869 0.0 
				1.12487 0.162413 0.0 
				0.945795 0.102419 0.0 
				0.973758 0.199589 0.0 
				0.889776 0.0444017 0.0 
				0.846133 0.133479 0.0 
				0.891092 -0.047172 0.0 
				0.721037 -0.00236613 0.0 
				0.949655 -0.104644 0.0 
				0.848683 -0.138329 0.0 
				1.03555 -0.117438 0.0 
				0.980001 -0.203913 0.0 
				1.11103 -0.0650783 0.0 
				1.13591 -0.164163 0.0 
				1.11208 0.0309846 0.0 
				1.21089 -0.0158915 0.0 
				1.03787 0.0961481 0.0 
				1.13594 0.128523 0.0 
				0.955687 0.0956338 0.0 
				0.993334 0.167983 0.0 
				0.817634 0.0652746 0.0 
				0.870387 0.122527 0.0 
				0.938753 -0.00864677 0.0 
				0.930291 -0.00204207 0.0 
				0.996731 -0.0150129 0.0 
				0.988496 -0.00554153 0.0 
				1.01328 -0.0143999 0.0 
				1.00362 -0.005751 0.0 
				1.02716 0.00170554 0.0 
				1.01258 -0.000106759 0.0 
				1.0219 0.0220969 0.0 
				1.01333 0.00914139 0.0 
				1.0016 0.0308458 0.0 
				1.00492 0.0155244 0.0 
				0.981424 0.0242598 0.0 
				0.99368 0.0148058 0.0 
				0.97334 0.00849802 0.0 
				0.986343 0.00804881 0.0 
				0.973788 -0.0088022 0.0 
				0.983197 -1.55686e-05 0.0 
				0.982504 -0.0242897 0.0 
				0.986629 -0.00799787 0.0 
				1.00346 -0.0301465 0.0 
				0.994357 -0.0144364 0.0 
				1.02415 -0.0199017 0.0 
				1.0059 -0.0144414 0.0 
				1.02827 0.00252367 0.0 
				1.01404 -0.00701641 0.0 
				1.01066 0.0200242 0.0 
				1.01187 0.00284289 0.0 
				0.987806 0.0196762 0.0 
				1.00032 0.00761591 0.0 
				0.929231 0.00730819 0.0 
				0.982418 0.00443997 0.0 
				0.991593 -0.00387428 0.0 
				0.951905 -0.000240419 0.0 
				1.00256 -0.00220551 0.0 
				1.00506 -0.00305615 0.0 
				1.00323 -0.000881248 0.0 
				1.00429 -0.00188881 0.0 
				1.00273 0.000570442 0.0 
				1.00515 0.000618922 0.0 
				1.00144 0.00179642 0.0 
				1.00396 0.00286179 0.0 
				0.999737 0.00218227 0.0 
				1.00123 0.0041725 0.0 
				0.998333 0.00164335 0.0 
				0.998279 0.00378647 0.0 
				0.997518 0.000652421 0.0 
				0.996344 0.0021582 0.0 
				0.997489 -0.000611897 0.0 
				0.995591 4.47076e-05 0.0 
				0.998239 -0.00163883 0.0 
				0.996263 -0.00208473 0.0 
				0.999592 -0.00224701 0.0 
				0.99818 -0.00371399 0.0 
				1.00129 -0.00194882 0.0 
				1.00112 -0.0040791 0.0 
				1.00265 -0.000773912 0.0 
				1.00385 -0.00272468 0.0 
				1.0033 0.000711626 0.0 
				1.00505 -0.000497278 0.0 
				1.00287 0.00216562 0.0 
				1.0043 0.00181041 0.0 
				0.992019 0.0038475 0.0 
				1.00547 0.00260397 0.0 
			</DataArray>
		</CellData>
		<Points>
		<DataArray type="Float64" NumberOfComponents="3" Format="ascii">
			0.5 0 0.0 
			0.46194 0.191342 0.0 
			0.353553 0.353553 0.0 
			0.191342 0.46194 0.0 
			-2.18557e-08 0.5 0.0 
			-0.191342 0.46194 0.0 
			-0.353553 0.353553 0.0 
			-0.46194 0.191342 0.0 
			-0.5 -4.37114e-08 0.0 
			-0.46194 -0.191342 0.0 
			-0.353553 -0.353553 0.0 
			-0.191342 -0.46194 0.0 
			6.55671e-08 -0.5 0.0 
			0.191342 -0.46194 0.0 
			0.353553 -0.353553 0.0 
			0.46194 -0.191342 0.0 
			0.884503 0.175939 0.0 
			0.749846 0.501031 0.0 
			0.501031 0.749846 0.0 
			0.175939 0.884503 0.0 
			-0.175939 0.884503 0.0 
			-0.501031 0.749846 0.0 
			-0.749846 0.501031 0.0 
			-0.884503 0.175939 0.0 
			-0.884503 -0.175939 0.0 
			-0.749846 -0.501031 0.0 
			-0.501031 -0.749846 0.0 
			-0.175939 -0.884503 0.0 
			0.175939 -0.884503 0.0 
			0.501031 -0.749846 0.0 
			0.749846 -0.501031 0.0 
			0.884503 -0.175938 0.0 
			2.20148 0 0.0 
			2.0339 0.842468 0.0 
			1.55668 1.55668 0.0 
			0.842468 2.0339 0.0 
			-9.62295e-08 2.20148 0.0 
			-0.842468 2.0339 0.0 
			-1.55668 1.55668 0.0 
			-2.0339 0.842468 0.0 
			-2.20148 -1.92459e-07 0.0 
			-2.0339 -0.842468 0.0 
			-1.55668 -1.55668 0.0 
			-0.842468 -2.0339 0.0 
			2.88689e-07 -2.20148 0.0 
			0.842468 -2.0339 0.0 
			1.55668 -1.55668 0.0 
			2.0339 -0.842468 0.0 
			6.28184 1.24954 0.0 
			5.32549 3.55838 0.0 
			3.55838 5.32549 0.0 
			1.24954 6.28184 0.0 
			-1.24954 6.28184 0.0 
			-3.55838 5.32549 0.0 
			-5.32549 3.55838 0.0 
			-6.28184 1.24954 0.0 
			-6.28184 -1.24954 0.0 
			-5.32549 -3.55838 0.0 
			-3.55838 -5.32549 0.0 
			-1.24954 -6.28184 0.0 
			1.24954 -6.28184 0.0 
			3.55838 -5.32549 0.0 
			5.32549 -3.55838 0.0 
			6.28184 -1.24953 0.0 
			20.0001 0 0.0 
			18.4777 7.6537 0.0 
			14.1422 14.1422 0.0 
			7.6537 18.4777 0.0 
			-8.74231e-07 20.0001 0.0 
			-7.6537 18.4777 0.0 
			-14.1422 14.1422 0.0 
			-18.4777 7.65369 0.0 
			-20.0001 -1.74846e-06 0.0 
			-18.4777 -7.6537 0.0 
			-14.1422 -14.1422 0.0 
			-7.65369 -18.4777 0.0 
			2.62269e-06 -20.0001 0.0 
			7.6537 -18.4777 0.0 
			14.1422 -14.1422 0.0 
			18.4777 -7.65369 0.0 
		</DataArray>
		</Points>
		<Cells>
			<DataArray type="UInt32" Name="connectivity" Format="ascii">
				0 16 1 
				0 31 16 
				1 17 2 
				1 16 17 
				2 18 3 
				2 17 18 
				3 19 4 
				3 18 19 
				4 20 5 
				4 19 20 
				5 21 6 
				5 20 21 
				6 22 7 
				6 21 22 
				7 23 8 
				7 22 23 
				8 24 9 
				8 23 24 
				9 25 10 
				9 24 25 
				10 26 11 
				10 25 26 
				11 27 12 
				11 26 27 
				12 28 13 
				12 27 28 
				13 29 14 
				13 28 29 
				14 30 15 
				14 29 30 
				15 31 0 
				15 30 31 
				16 32 33 
				16 31 32 
				17 33 34 
				17 16 33 
				18 34 35 
				18 17 34 
				19 35 36 
				19 18 35 
				20 36 37 
				20 19 36 
				21 37 38 
				21 20 37 
				22 38 39 
				22 21 38 
				23 39 40 
				23 22 39 
				24 40 41 
				24 23 40 
				25 41 42 
				25 24 41 
				26 42 43 
				26 25 42 
				27 43 44 
				27 26 43 
				28 44 45 
				28 27 44 
				29 45 46 
				29 28 45 
				30 46 47 
				30 29 46 
				31 47 32 
				31 30 47 
				32 48 33 
				32 63 48 
				33 49 34 
				33 48 49 
				34 50 35 
				34 49 50 
				35 51 36 
				35 50 51 
				36 52 37 
				36 51 52 
				37 53 38 
				37 52 53 
				38 54 39 
				38 53 54 
				39 55 40 
				39 54 55 
				40 56 41 
				40 55 56 
				41 57 42 
				41 56 57 
				42 58 43 
				42 57 58 
				43 59 44 
				43 58 59 
				44 60 45 
				44 59 60 
				45 61 46 
				45 60 61 
				46 62 47 
				46 61 62 
				47 63 32 
				47 62 63 
				48 64 65 
				48 63 64 
				49 65 66 
				49 48 65 
				50 66 67 
				50 49 66 
				51 67 68 
				51 50 67 
				52 68 69 
				52 51 68 
				53 69 70 
				53 52 69 
				54 70 71 
				54 53 70 
				55 71 72 
				55 54 71 
				56 72 73 
				56 55 72 
				57 73 74 
				57 56 73 
				58 74 75 
				58 57 74 
				59 75 76 
				59 58 75 
				60 76 77 
				60 59 76 
				61 77 78 
				61 60 77 
				62 78 79 
				62 61 78 
				63 79 64 
				63 62 79 
			</DataArray>
			<DataArray type="UInt32" Name="offsets" Format="ascii">
				3
				6
				9
				12
				15
				18
				21
				24
				27
				30
				33
				36
				39
				42
				45
				48
				51
				54
				57
				60
				63
				66
				69
				72
				75
				78
				81
				84
				87
				90
				93
				96
				99
				102
				105
				108
				111
				114
				117
				120
				123
				126
				129
				132
				135
				138
				141
				144
				147
				150
				153
				156
				159
				162
				165
				168
				171
				174
				177
				180
				183
				186
				189
				192
				195
				198
				201
				204
				207
				210
				213
				216
				219
				222
				225
				228
				231
				234
				237
				240
				243
				246
				249
				252
				255
				258
				261
				264
				267
				270
				273
				276
				279
				282
				285
				288
				291
				294
				297
				300
				303
				306
				309
				312
				315
				318
				321
				324
				327
				330
				333
				336
				339
				342
				345
				348
				351
				354
				357
				360
				363
				366
				369
				372
				375
				378
				381
				384
			</DataArray>
			<DataArray type="Int32" Name="types" Format="ascii">
				5
				5
				5
				5
				5
				5
				5
				5
				5
				5
				5
				5
				5
				5
				5
				5
				5
				5
				5
				5
				5
				5
				5
				5
				5
				5
				5
				5
				5
				5
				5
				5
				5
				5
				5
				5
				5
				5
				5
				5
				5
				5
				5
				5
				5
				5
				5
				5
				5
				5
				5
				5
				5
				5
				5
				5
				5
				5
				5
				5
				5
				5
				5
				5
				5
				5
				5
				5
				5
				5
				5
				5
				5
				5
				5
				5
				5
				5
				5
				5
				5
				5
				5
				5
				5
				5
				5
				5
				5
				5
				5
				5
				5
				5
				5
				5
				5
				5
				5
				5
				5
				5
				5
				5
				5
				5
				5
				5
				5
				5
				5
				5
				5
				5
				5
				5
				5
				5
				5
				5
				5
				5
				5
				5
				5
				5
				5
				5
			</DataArray>
		</Cells>
	</Piece>
</UnstructuredGrid>
</VTKFile>