<VTKFile type="UnstructuredGrid" version="0.1" byte_order="LittleEndian">
<UnstructuredGrid>
	<Piece NumberOfPoints="288" NumberOfCells="512">
		<PointData Scalars="density" Vectors="velocity">
			<DataArray type="Float64" Name="density" Format="ascii">
				0.26249
				0.260494
				0.255459
				0.247569
				0.236652
				0.223775
				0.210833
				0.200643
				0.196899
				0.201411
				0.212067
				0.225502
				0.239172
				0.251355
				0.260857
				0.266873
				0.268931
				0.266873
				0.260857
				0.251355
				0.239173
				0.225502
				0.212067
				0.201412
				0.1969
				0.200644
				0.210833
				0.223776
				0.236652
				0.247569
				0.255459
				0.260495
				0.260993
				0.258375
				0.253965
				0.247486
				0.239233
				0.230222
				0.222059
				0.217032
				0.217203
				0.222475
				0.230845
				0.240216
				0.249086
				0.25646
				0.261696
				0.264406
				0.264406
				0.261696
				0.25646
				0.249086
				0.240217
				0.230845
				0.222475
				0.217203
				0.217033
				0.22206
				0.230222
				0.239233
				0.247486
				0.253965
				0.258375
				0.260993
				0.257334
				0.256579
				0.254772
				0.251985
				0.248177
				0.24376
				0.239399
				0.236069
				0.23483
				0.23619
				0.239671
				0.244248
				0.248953
				0.253103
				0.256281
				0.25826
				0.258931
				0.25826
				0.256281
				0.253103
				0.248953
				0.244248
				0.239671
				0.23619
				0.234831
				0.236069
				0.2394
				0.243761
				0.248178
				0.251985
				0.254772
				0.256579
				0.253207
				0.252815
				0.251943
				0.250506
				0.248692
				0.246771
				0.245113
				0.244152
				0.244201
				0.245268
				0.247046
				0.249104
				0.251063
				0.252674
				0.253798
				0.254371
				0.254371
				0.253798
				0.252674
				0.251064
				0.249104
				0.247047
				0.245268
				0.244201
				0.244152
				0.245113
				0.246771
				0.248692
				0.250506
				0.251943
				0.252815
				0.253207
				0.250947
				0.251053
				0.251041
				0.250631
				0.24998
				0.249238
				0.248537
				0.248035
				0.247871
				0.248099
				0.24866
				0.249411
				0.250195
				0.250889
				0.251417
				0.251743
				0.251852
				0.251743
				0.251417
				0.250889
				0.250195
				0.249411
				0.24866
				0.248099
				0.247871
				0.248035
				0.248537
				0.249238
				0.24998
				0.250631
				0.251041
				0.251053
				0.250128
				0.250373
				0.250358
				0.25014
				0.249883
				0.249626
				0.249416
				0.249305
				0.249327
				0.249479
				0.249723
				0.250004
				0.250272
				0.250492
				0.250645
				0.250722
				0.250722
				0.250645
				0.250492
				0.250272
				0.250004
				0.249723
				0.249479
				0.249327
				0.249305
				0.249416
				0.249626
				0.249883
				0.25014
				0.250359
				0.250373
				0.250128
				0.24985
				0.250009
				0.250146
				0.250085
				0.249999
				0.249918
				0.249845
				0.249798
				0.249788
				0.249821
				0.249891
				0.249982
				0.250075
				0.250158
				0.25022
				0.250259
				0.250272
				0.250259
				0.25022
				0.250158
				0.250075
				0.249982
				0.249891
				0.249821
				0.249788
				0.249798
				0.249845
				0.249918
				0.249999
				0.250085
				0.250146
				0.250009
				0.249929
				0.250043
				0.250056
				0.250023
				0.249999
				0.249975
				0.249957
				0.249948
				0.24996
				0.249988
				0.250024
				0.250062
				0.250096
				0.250123
				0.250142
				0.250151
				0.250151
				0.250142
				0.250123
				0.250096
				0.250062
				0.250024
				0.249988
				0.24996
				0.249948
				0.249957
				0.249975
				0.249999
				0.250023
				0.250056
				0.250043
				0.249929
				0.249954
				0.250013
				0.250056
				0.250037
				0.25002
				0.250005
				0.249991
				0.249983
				0.249986
				0.250009
				0.250036
				0.250065
				0.250092
				0.250113
				0.250129
				0.250138
				0.250141
				0.250138
				0.250129
				0.250113
				0.250092
				0.250065
				0.250036
				0.250009
				0.249986
				0.249983
				0.249991
				0.250005
				0.25002
				0.250037
				0.250056
				0.250013
			</DataArray>
			<DataArray type="Float64" Name="mach-number" Format="ascii">
				0.0507364
				0.110704
				0.215498
				0.334435
				0.457133
				0.576363
				0.683404
				0.763656
				0.794773
				0.765417
				0.69084
				0.592059
				0.481886
				0.366879
				0.250961
				0.139658
				0.070348
				0.139656
				0.25096
				0.366877
				0.481883
				0.592056
				0.690837
				0.765413
				0.794769
				0.763652
				0.683399
				0.576359
				0.45713
				0.334432
				0.215495
				0.110702
				0.137372
				0.203055
				0.288027
				0.37569
				0.46177
				0.54145
				0.606982
				0.646277
				0.647478
				0.610716
				0.547301
				0.468973
				0.384017
				0.298847
				0.221618
				0.169288
				0.169287
				0.221617
				0.298845
				0.384015
				0.468971
				0.547299
				0.610713
				0.647475
				0.646274
				0.606979
				0.541448
				0.461768
				0.375688
				0.288025
				0.203053
				0.137371
				0.226736
				0.25288
				0.300828
				0.345572
				0.390176
				0.434926
				0.475375
				0.504797
				0.515992
				0.5054
				0.475847
				0.434078
				0.387112
				0.341062
				0.301579
				0.274383
				0.264583
				0.274383
				0.301578
				0.341061
				0.387111
				0.434076
				0.475846
				0.505398
				0.51599
				0.504795
				0.475373
				0.434924
				0.390174
				0.345571
				0.300827
				0.25288
				0.304339
				0.331209
				0.353442
				0.371716
				0.392018
				0.412278
				0.42894
				0.438307
				0.43786
				0.427585
				0.409981
				0.388765
				0.367559
				0.349274
				0.335989
				0.329025
				0.329025
				0.335988
				0.349273
				0.367559
				0.388764
				0.40998
				0.427584
				0.437859
				0.438306
				0.428938
				0.412277
				0.392017
				0.371716
				0.353441
				0.331209
				0.304339
				0.340377
				0.351841
				0.366412
				0.373455
				0.380792
				0.388978
				0.396349
				0.401437
				0.402979
				0.400496
				0.394568
				0.38657
				0.37809
				0.370455
				0.364553
				0.360871
				0.359624
				0.36087
				0.364553
				0.370455
				0.378089
				0.38657
				0.394568
				0.400495
				0.402978
				0.401436
				0.396349
				0.388978
				0.380791
				0.373455
				0.366411
				0.351841
				0.363024
				0.373084
				0.377591
				0.37954
				0.382231
				0.38489
				0.387019
				0.388114
				0.387831
				0.386184
				0.383558
				0.380519
				0.377605
				0.375202
				0.373526
				0.372673
				0.372673
				0.373526
				0.375202
				0.377605
				0.380518
				0.383557
				0.386184
				0.387831
				0.388114
				0.387019
				0.38489
				0.38223
				0.37954
				0.377591
				0.373084
				0.363024
				0.370746
				0.375123
				0.37949
				0.380036
				0.380606
				0.381411
				0.38214
				0.382626
				0.382716
				0.382348
				0.381595
				0.380621
				0.379614
				0.378727
				0.378053
				0.377638
				0.377499
				0.377638
				0.378053
				0.378726
				0.379614
				0.380621
				0.381595
				0.382348
				0.382715
				0.382626
				0.38214
				0.381411
				0.380606
				0.380036
				0.37949
				0.375123
				0.376522
				0.379678
				0.380352
				0.380224
				0.380416
				0.380636
				0.380819
				0.38091
				0.380815
				0.380589
				0.380263
				0.379901
				0.379561
				0.379284
				0.379093
				0.378997
				0.378997
				0.379093
				0.379284
				0.379561
				0.379901
				0.380263
				0.380588
				0.380815
				0.38091
				0.380819
				0.380636
				0.380416
				0.380224
				0.380352
				0.379678
				0.376522
				0.37705
				0.378854
				0.380414
				0.380249
				0.380228
				0.380354
				0.380475
				0.38056
				0.380532
				0.38038
				0.38018
				0.379943
				0.379705
				0.379499
				0.379344
				0.379249
				0.379218
				0.379249
				0.379344
				0.379499
				0.379705
				0.379943
				0.38018
				0.38038
				0.380532
				0.38056
				0.380475
				0.380354
				0.380228
				0.380249
				0.380414
				0.378854
			</DataArray>
			<DataArray type="Float64" Name="pressure" Format="ascii">
				1.31514
				1.30692
				1.27821
				1.22496
				1.15061
				1.06424
				0.979163
				0.913426
				0.889351
				0.917547
				0.985354
				1.07274
				1.16383
				1.24687
				1.31286
				1.35518
				1.36975
				1.35518
				1.31286
				1.24688
				1.16384
				1.07274
				0.985357
				0.91755
				0.889355
				0.91343
				0.979166
				1.06424
				1.15061
				1.22496
				1.27821
				1.30692
				1.3126
				1.2997
				1.27032
				1.22512
				1.16864
				1.10804
				1.05396
				1.02083
				1.02137
				1.05513
				1.1099
				1.17246
				1.23275
				1.28364
				1.32019
				1.33924
				1.33924
				1.32019
				1.28364
				1.23275
				1.17247
				1.10991
				1.05513
				1.02137
				1.02084
				1.05397
				1.10804
				1.16865
				1.22513
				1.27032
				1.2997
				1.3126
				1.29131
				1.28765
				1.2754
				1.25465
				1.22749
				1.19665
				1.1666
				1.14383
				1.13524
				1.14412
				1.1674
				1.19837
				1.23054
				1.25917
				1.28127
				1.29509
				1.29979
				1.29509
				1.28127
				1.25917
				1.23054
				1.19837
				1.16741
				1.14412
				1.13524
				1.14383
				1.1666
				1.19665
				1.22749
				1.25465
				1.2754
				1.28765
				1.264
				1.26025
				1.25236
				1.24132
				1.22827
				1.21478
				1.2033
				1.19669
				1.19701
				1.2043
				1.21648
				1.23063
				1.24417
				1.25535
				1.26317
				1.26716
				1.26716
				1.26317
				1.25535
				1.24418
				1.23063
				1.21648
				1.2043
				1.19701
				1.19669
				1.2033
				1.21478
				1.22827
				1.24132
				1.25236
				1.26025
				1.264
				1.24786
				1.24721
				1.24492
				1.24114
				1.23643
				1.23126
				1.22644
				1.22301
				1.22191
				1.2235
				1.22738
				1.23257
				1.238
				1.24281
				1.24648
				1.24874
				1.2495
				1.24874
				1.24648
				1.24281
				1.238
				1.23257
				1.22738
				1.2235
				1.22191
				1.22301
				1.22644
				1.23126
				1.23643
				1.24114
				1.24492
				1.24721
				1.24045
				1.24002
				1.23895
				1.23746
				1.23574
				1.23399
				1.23257
				1.23182
				1.23198
				1.23303
				1.23472
				1.23667
				1.23853
				1.24005
				1.24111
				1.24165
				1.24165
				1.24111
				1.24005
				1.23853
				1.23667
				1.23472
				1.23303
				1.23198
				1.23182
				1.23257
				1.23399
				1.23574
				1.23746
				1.23895
				1.24002
				1.24045
				1.23777
				1.23775
				1.23754
				1.23712
				1.23661
				1.23606
				1.23556
				1.23524
				1.23517
				1.23541
				1.23589
				1.23652
				1.23717
				1.23774
				1.23817
				1.23844
				1.23853
				1.23844
				1.23817
				1.23774
				1.23717
				1.23652
				1.23589
				1.23541
				1.23517
				1.23524
				1.23556
				1.23606
				1.23661
				1.23712
				1.23754
				1.23775
				1.23706
				1.23701
				1.23691
				1.23677
				1.23662
				1.23647
				1.23635
				1.23629
				1.23636
				1.23656
				1.23681
				1.23707
				1.23731
				1.2375
				1.23763
				1.23769
				1.23769
				1.23763
				1.2375
				1.23731
				1.23707
				1.23681
				1.23656
				1.23636
				1.23629
				1.23635
				1.23647
				1.23662
				1.23677
				1.23691
				1.23701
				1.23706
				1.23706
				1.23702
				1.23691
				1.23682
				1.23675
				1.23666
				1.23659
				1.23654
				1.23656
				1.23671
				1.23689
				1.23709
				1.23728
				1.23743
				1.23754
				1.2376
				1.23762
				1.2376
				1.23754
				1.23743
				1.23728
				1.23709
				1.23689
				1.23671
				1.23656
				1.23654
				1.23659
				1.23666
				1.23675
				1.23682
				1.23691
				1.23702
			</DataArray>
			<DataArray type="Float64" Name="velocity" NumberOfComponents="3" Format="ascii">
				0.134373 -2.83839e-06 0.0 
				0.197363 -0.217089 0.0 
				0.369521 -0.434469 0.0 
				0.627733 -0.617034 0.0 
				0.951603 -0.718947 0.0 
				1.3074 -0.708883 0.0 
				1.64627 -0.571368 0.0 
				1.90271 -0.310665 0.0 
				1.99829 0.0343383 0.0 
				1.89545 0.379217 0.0 
				1.64072 0.642364 0.0 
				1.30979 0.786763 0.0 
				0.964319 0.807497 0.0 
				0.650146 0.715605 0.0 
				0.401445 0.531612 0.0 
				0.242475 0.282605 0.0 
				0.187852 2.35993e-06 0.0 
				0.242474 -0.2826 0.0 
				0.401445 -0.531607 0.0 
				0.650143 -0.715601 0.0 
				0.964315 -0.807493 0.0 
				1.30978 -0.786759 0.0 
				1.64071 -0.64236 0.0 
				1.89544 -0.379214 0.0 
				1.99828 -0.0343381 0.0 
				1.9027 0.310662 0.0 
				1.64626 0.571364 0.0 
				1.30739 0.708878 0.0 
				0.951597 0.718941 0.0 
				0.627728 0.617028 0.0 
				0.369517 0.434462 0.0 
				0.197362 0.217083 0.0 
				0.35399 -0.0869478 0.0 
				0.476381 -0.251849 0.0 
				0.653223 -0.392738 0.0 
				0.85977 -0.48885 0.0 
				1.09061 -0.518504 0.0 
				1.32575 -0.466658 0.0 
				1.53017 -0.326671 0.0 
				1.65477 -0.110209 0.0 
				1.65543 0.139536 0.0 
				1.5319 0.360198 0.0 
				1.32618 0.507448 0.0 
				1.08732 0.566213 0.0 
				0.85462 0.539815 0.0 
				0.656831 0.4409 0.0 
				0.51418 0.287224 0.0 
				0.439665 0.0995768 0.0 
				0.439664 -0.0995726 0.0 
				0.514179 -0.28722 0.0 
				0.656829 -0.440896 0.0 
				0.854617 -0.539811 0.0 
				1.08732 -0.56621 0.0 
				1.32618 -0.507445 0.0 
				1.53189 -0.360196 0.0 
				1.65542 -0.139535 0.0 
				1.65476 0.110208 0.0 
				1.53016 0.326669 0.0 
				1.32575 0.466655 0.0 
				1.09061 0.518499 0.0 
				0.859766 0.488845 0.0 
				0.65322 0.392733 0.0 
				0.476378 0.251844 0.0 
				0.353989 0.0869424 0.0 
				0.600967 -2.09927e-06 0.0 
				0.66248 -0.102066 0.0 
				0.775301 -0.182085 0.0 
				0.879798 -0.241663 0.0 
				0.989826 -0.272754 0.0 
				1.10888 -0.265398 0.0 
				1.22328 -0.212832 0.0 
				1.30965 -0.115607 0.0 
				1.34233 0.0111893 0.0 
				1.30886 0.138359 0.0 
				1.2199 0.236468 0.0 
				1.10026 0.289301 0.0 
				0.974808 0.294538 0.0 
				0.862279 0.258182 0.0 
				0.774944 0.189846 0.0 
				0.720076 0.100209 0.0 
				0.701407 1.56159e-06 0.0 
				0.720075 -0.100206 0.0 
				0.774943 -0.189843 0.0 
				0.862277 -0.258179 0.0 
				0.974805 -0.294535 0.0 
				1.10026 -0.289299 0.0 
				1.2199 -0.236466 0.0 
				1.30885 -0.138358 0.0 
				1.34233 -0.0111895 0.0 
				1.30965 0.115605 0.0 
				1.22327 0.21283 0.0 
				1.10888 0.265395 0.0 
				0.989824 0.27275 0.0 
				0.879796 0.241659 0.0 
				0.7753 0.182082 0.0 
				0.662479 0.102062 0.0 
				0.804133 -0.0261648 0.0 
				0.872454 -0.0662925 0.0 
				0.92748 -0.0955266 0.0 
				0.972089 -0.116609 0.0 
				1.02363 -0.12163 0.0 
				1.07701 -0.107069 0.0 
				1.12221 -0.0719359 0.0 
				1.14798 -0.0203837 0.0 
				1.14642 0.0373103 0.0 
				1.11761 0.0880173 0.0 
				1.06957 0.12145 0.0 
				1.01367 0.133417 0.0 
				0.960032 0.125075 0.0 
				0.915655 0.100492 0.0 
				0.884544 0.0646174 0.0 
				0.868628 0.0222421 0.0 
				0.868627 -0.02224 0.0 
				0.884544 -0.0646153 0.0 
				0.915654 -0.10049 0.0 
				0.96003 -0.125073 0.0 
				1.01367 -0.133415 0.0 
				1.06957 -0.121448 0.0 
				1.11761 -0.0880165 0.0 
				1.14642 -0.0373102 0.0 
				1.14798 0.0203832 0.0 
				1.1222 0.0719346 0.0 
				1.07701 0.107067 0.0 
				1.02363 0.121628 0.0 
				0.972087 0.116606 0.0 
				0.927479 0.095524 0.0 
				0.872453 0.0662899 0.0 
				0.804132 0.0261621 0.0 
				0.898082 -9.29773e-07 0.0 
				0.927679 -0.0199297 0.0 
				0.964959 -0.0309285 0.0 
				0.982455 -0.041298 0.0 
				1.00095 -0.046658 0.0 
				1.02199 -0.0443527 0.0 
				1.0412 -0.0341852 0.0 
				1.05459 -0.0168195 0.0 
				1.05864 0.00481122 0.0 
				1.052 0.0260985 0.0 
				1.03636 0.0424575 0.0 
				1.01553 0.0510594 0.0 
				0.993804 0.0513648 0.0 
				0.974561 0.0445189 0.0 
				0.959892 0.0324099 0.0 
				0.950832 0.0169892 0.0 
				0.94778 6.29024e-07 0.0 
				0.950831 -0.0169879 0.0 
				0.959891 -0.0324087 0.0 
				0.97456 -0.0445178 0.0 
				0.993803 -0.0513638 0.0 
				1.01553 -0.0510586 0.0 
				1.03635 -0.042457 0.0 
				1.052 -0.0260984 0.0 
				1.05864 -0.00481144 0.0 
				1.05459 0.0168189 0.0 
				1.0412 0.0341842 0.0 
				1.02199 0.0443513 0.0 
				1.00095 0.0466565 0.0 
				0.982454 0.0412962 0.0 
				0.964959 0.0309267 0.0 
				0.927678 0.0199279 0.0 
				0.956538 -0.00475059 0.0 
				0.982364 -0.00910519 0.0 
				0.993801 -0.0120724 0.0 
				0.998721 -0.0153436 0.0 
				1.00561 -0.015729 0.0 
				1.01245 -0.0134574 0.0 
				1.01795 -0.00850887 0.0 
				1.02078 -0.00149428 0.0 
				1.02004 0.0062131 0.0 
				1.01577 0.012941 0.0 
				1.00899 0.0173289 0.0 
				1.00119 0.0187882 0.0 
				0.993759 0.0174636 0.0 
				0.987663 0.013937 0.0 
				0.983429 0.00891686 0.0 
				0.981279 0.00306107 0.0 
				0.981279 -0.00306039 0.0 
				0.983429 -0.0089162 0.0 
				0.987663 -0.0139364 0.0 
				0.993759 -0.0174631 0.0 
				1.00119 -0.0187877 0.0 
				1.00899 -0.0173287 0.0 
				1.01577 -0.0129409 0.0 
				1.02003 -0.00621325 0.0 
				1.02078 0.0014939 0.0 
				1.01794 0.00850826 0.0 
				1.01245 0.0134566 0.0 
				1.00561 0.0157281 0.0 
				0.99872 0.0153426 0.0 
				0.993801 0.0120712 0.0 
				0.982364 0.009104 0.0 
				0.956538 0.00474935 0.0 
				0.976385 -4.58191e-07 0.0 
				0.987583 -0.00318593 0.0 
				0.998724 -0.00329139 0.0 
				1.00011 -0.0045131 0.0 
				1.00157 -0.00513821 0.0 
				1.00363 -0.0047494 0.0 
				1.0055 -0.00350933 0.0 
				1.00674 -0.00145507 0.0 
				1.00697 0.00101279 0.0 
				1.00603 0.00336876 0.0 
				1.0041 0.00518137 0.0 
				1.0016 0.00610956 0.0 
				0.999026 0.00608678 0.0 
				0.996761 0.00524427 0.0 
				0.995044 0.00380268 0.0 
				0.993988 0.00198859 0.0 
				0.993634 1.56266e-07 0.0 
				0.993988 -0.00198828 0.0 
				0.995044 -0.00380239 0.0 
				0.996761 -0.00524403 0.0 
				0.999026 -0.00608658 0.0 
				1.0016 -0.00610945 0.0 
				1.0041 -0.00518137 0.0 
				1.00603 -0.00336888 0.0 
				1.00697 -0.00101304 0.0 
				1.00674 0.00145468 0.0 
				1.0055 0.00350881 0.0 
				1.00363 0.00474877 0.0 
				1.00157 0.00513748 0.0 
				1.00011 0.00451229 0.0 
				0.998724 0.00329054 0.0 
				0.987583 0.00318505 0.0 
				0.991153 -0.000775832 0.0 
				0.999217 -0.000757454 0.0 
				1.00092 -0.000950896 0.0 
				1.00059 -0.00154582 0.0 
				1.00109 -0.00155145 0.0 
				1.00165 -0.00129238 0.0 
				1.00212 -0.000745971 0.0 
				1.00235 6.40149e-06 0.0 
				1.00211 0.000807297 0.0 
				1.00154 0.00154464 0.0 
				1.00071 0.00201922 0.0 
				0.999786 0.00216776 0.0 
				0.998919 0.0020057 0.0 
				0.998214 0.00159688 0.0 
				0.997726 0.00102041 0.0 
				0.99748 0.000350117 0.0 
				0.99748 -0.000350008 0.0 
				0.997726 -0.00102031 0.0 
				0.998214 -0.0015968 0.0 
				0.998919 -0.00200565 0.0 
				0.999786 -0.00216775 0.0 
				1.00071 -0.00201927 0.0 
				1.00154 -0.00154475 0.0 
				1.00211 -0.000807457 0.0 
				1.00235 -6.65853e-06 0.0 
				1.00212 0.000745613 0.0 
				1.00165 0.00129193 0.0 
				1.00109 0.00155093 0.0 
				1.00059 0.00154524 0.0 
				1.00092 0.000950272 0.0 
				0.999217 0.000756812 0.0 
				0.991153 0.000775177 0.0 
				0.992495 -2.95597e-07 0.0 
				0.997108 -0.000440803 0.0 
				1.00108 -0.000164405 0.0 
				1.00065 -0.000655953 0.0 
				1.0006 -0.000907769 0.0 
				1.00093 -0.000830986 0.0 
				1.00125 -0.000594325 0.0 
				1.00147 -0.000188396 0.0 
				1.00139 0.000293001 0.0 
				1.00101 0.000805473 0.0 
				1.0005 0.00121827 0.0 
				0.9999 0.00142332 0.0 
				0.999296 0.00141397 0.0 
				0.998771 0.00121772 0.0 
				0.998376 0.000883358 0.0 
				0.998135 0.000462187 0.0 
				0.998054 2.96012e-08 0.0 
				0.998135 -0.000462132 0.0 
				0.998376 -0.000883315 0.0 
				0.998771 -0.00121769 0.0 
				0.999295 -0.00141397 0.0 
				0.9999 -0.00142336 0.0 
				1.0005 -0.00121835 0.0 
				1.00101 -0.000805597 0.0 
				1.00139 -0.000293187 0.0 
				1.00147 0.000188107 0.0 
				1.00125 0.000593946 0.0 
				1.00093 0.000830531 0.0 
				1.0006 0.000907255 0.0 
				1.00065 0.000655396 0.0 
				1.00108 0.000163825 0.0 
				0.997108 0.000440215 0.0 
			</DataArray>
		</PointData>
		<Points>
		<DataArray type="Float64" NumberOfComponents="3" Format="ascii">
			0.5 0 0.0 
			0.490393 0.0975452 0.0 
			0.46194 0.191342 0.0 
			0.415735 0.277785 0.0 
			0.353553 0.353553 0.0 
			0.277785 0.415735 0.0 
			0.191342 0.46194 0.0 
			0.0975451 0.490393 0.0 
			-2.18557e-08 0.5 0.0 
			-0.0975452 0.490393 0.0 
			-0.191342 0.46194 0.0 
			-0.277785 0.415735 0.0 
			-0.353553 0.353553 0.0 
			-0.415735 0.277785 0.0 
			-0.46194 0.191342 0.0 
			-0.490393 0.0975451 0.0 
			-0.5 -4.37114e-08 0.0 
			-0.490393 -0.0975452 0.0 
			-0.46194 -0.191342 0.0 
			-0.415735 -0.277785 0.0 
			-0.353553 -0.353553 0.0 
			-0.277785 -0.415735 0.0 
			-0.191342 -0.46194 0.0 
			-0.0975451 -0.490393 0.0 
			6.55671e-08 -0.5 0.0 
			0.0975452 -0.490393 0.0 
			0.191342 -0.46194 0.0 
			0.277785 -0.415735 0.0 
			0.353553 -0.353553 0.0 
			0.415735 -0.277785 0.0 
			0.46194 -0.191342 0.0 
			0.490393 -0.0975451 0.0 
			0.640494 0.0630831 0.0 
			0.61588 0.186825 0.0 
			0.567598 0.303387 0.0 
			0.497504 0.408291 0.0 
			0.408291 0.497504 0.0 
			0.303387 0.567598 0.0 
			0.186825 0.61588 0.0 
			0.0630831 0.640494 0.0 
			-0.0630831 0.640494 0.0 
			-0.186825 0.61588 0.0 
			-0.303387 0.567598 0.0 
			-0.408291 0.497504 0.0 
			-0.497504 0.408291 0.0 
			-0.567598 0.303387 0.0 
			-0.61588 0.186825 0.0 
			-0.640494 0.0630831 0.0 
			-0.640494 -0.0630832 0.0 
			-0.61588 -0.186825 0.0 
			-0.567598 -0.303388 0.0 
			-0.497504 -0.408291 0.0 
			-0.408291 -0.497504 0.0 
			-0.303387 -0.567598 0.0 
			-0.186825 -0.61588 0.0 
			-0.063083 -0.640494 0.0 
			0.0630832 -0.640494 0.0 
			0.186825 -0.61588 0.0 
			0.303388 -0.567598 0.0 
			0.408291 -0.497504 0.0 
			0.497504 -0.408291 0.0 
			0.567598 -0.303387 0.0 
			0.61588 -0.186825 0.0 
			0.640494 -0.063083 0.0 
			0.901832 0 0.0 
			0.884503 0.175939 0.0 
			0.833184 0.345116 0.0 
			0.749846 0.501031 0.0 
			0.637691 0.637691 0.0 
			0.501031 0.749846 0.0 
			0.345116 0.833184 0.0 
			0.175939 0.884503 0.0 
			-3.94203e-08 0.901832 0.0 
			-0.175939 0.884503 0.0 
			-0.345116 0.833184 0.0 
			-0.501031 0.749846 0.0 
			-0.637691 0.637691 0.0 
			-0.749846 0.501031 0.0 
			-0.833184 0.345116 0.0 
			-0.884503 0.175939 0.0 
			-0.901832 -7.88406e-08 0.0 
			-0.884503 -0.175939 0.0 
			-0.833184 -0.345116 0.0 
			-0.749846 -0.501031 0.0 
			-0.637691 -0.637691 0.0 
			-0.501031 -0.749846 0.0 
			-0.345116 -0.833184 0.0 
			-0.175939 -0.884503 0.0 
			1.18261e-07 -0.901832 0.0 
			0.175939 -0.884503 0.0 
			0.345116 -0.833184 0.0 
			0.501031 -0.749846 0.0 
			0.637691 -0.637691 0.0 
			0.749846 -0.501031 0.0 
			0.833184 -0.345116 0.0 
			0.884503 -0.175938 0.0 
			1.35967 0.133916 0.0 
			1.30742 0.396602 0.0 
			1.20493 0.644047 0.0 
			1.05613 0.866742 0.0 
			0.866742 1.05613 0.0 
			0.644047 1.20493 0.0 
			0.396602 1.30742 0.0 
			0.133916 1.35967 0.0 
			-0.133916 1.35967 0.0 
			-0.396602 1.30742 0.0 
			-0.644047 1.20493 0.0 
			-0.866742 1.05613 0.0 
			-1.05613 0.866742 0.0 
			-1.20493 0.644047 0.0 
			-1.30742 0.396602 0.0 
			-1.35967 0.133916 0.0 
			-1.35967 -0.133916 0.0 
			-1.30742 -0.396602 0.0 
			-1.20493 -0.644047 0.0 
			-1.05613 -0.866742 0.0 
			-0.866742 -1.05613 0.0 
			-0.644047 -1.20493 0.0 
			-0.396602 -1.30742 0.0 
			-0.133916 -1.35967 0.0 
			0.133916 -1.35967 0.0 
			0.396602 -1.30742 0.0 
			0.644047 -1.20493 0.0 
			0.866742 -1.05613 0.0 
			1.05613 -0.866742 0.0 
			1.20493 -0.644047 0.0 
			1.30742 -0.396602 0.0 
			1.35967 -0.133916 0.0 
			2.20148 0 0.0 
			2.15917 0.429487 0.0 
			2.0339 0.842468 0.0 
			1.83046 1.22307 0.0 
			1.55668 1.55668 0.0 
			1.22307 1.83046 0.0 
			0.842468 2.0339 0.0 
			0.429486 2.15917 0.0 
			-9.62295e-08 2.20148 0.0 
			-0.429487 2.15917 0.0 
			-0.842468 2.0339 0.0 
			-1.22307 1.83046 0.0 
			-1.55668 1.55668 0.0 
			-1.83046 1.22307 0.0 
			-2.0339 0.842468 0.0 
			-2.15917 0.429486 0.0 
			-2.20148 -1.92459e-07 0.0 
			-2.15917 -0.429487 0.0 
			-2.0339 -0.842468 0.0 
			-1.83046 -1.22307 0.0 
			-1.55668 -1.55668 0.0 
			-1.22307 -1.83046 0.0 
			-0.842468 -2.0339 0.0 
			-0.429486 -2.15917 0.0 
			2.88689e-07 -2.20148 0.0 
			0.429487 -2.15917 0.0 
			0.842468 -2.0339 0.0 
			1.22307 -1.83046 0.0 
			1.55668 -1.55668 0.0 
			1.83046 -1.22307 0.0 
			2.0339 -0.842468 0.0 
			2.15917 -0.429486 0.0 
			3.68572 0.363012 0.0 
			3.54408 1.07508 0.0 
			3.26624 1.74584 0.0 
			2.86288 2.34951 0.0 
			2.34951 2.86288 0.0 
			1.74584 3.26624 0.0 
			1.07508 3.54408 0.0 
			0.363011 3.68572 0.0 
			-0.363012 3.68572 0.0 
			-1.07508 3.54408 0.0 
			-1.74584 3.26624 0.0 
			-2.34951 2.86288 0.0 
			-2.86288 2.34951 0.0 
			-3.26624 1.74584 0.0 
			-3.54408 1.07508 0.0 
			-3.68572 0.363011 0.0 
			-3.68572 -0.363012 0.0 
			-3.54408 -1.07508 0.0 
			-3.26624 -1.74584 0.0 
			-2.86288 -2.34951 0.0 
			-2.34951 -2.86288 0.0 
			-1.74584 -3.26624 0.0 
			-1.07508 -3.54408 0.0 
			-0.363011 -3.68572 0.0 
			0.363012 -3.68572 0.0 
			1.07508 -3.54408 0.0 
			1.74584 -3.26624 0.0 
			2.34951 -2.86288 0.0 
			2.86288 -2.34951 0.0 
			3.26624 -1.74584 0.0 
			3.54408 -1.07508 0.0 
			3.68572 -0.363011 0.0 
			6.40491 0 0.0 
			6.28184 1.24954 0.0 
			5.91737 2.45105 0.0 
			5.32549 3.55838 0.0 
			4.52896 4.52896 0.0 
			3.55838 5.32549 0.0 
			2.45105 5.91737 0.0 
			1.24954 6.28184 0.0 
			-2.79968e-07 6.40491 0.0 
			-1.24954 6.28184 0.0 
			-2.45105 5.91737 0.0 
			-3.55838 5.32549 0.0 
			-4.52896 4.52896 0.0 
			-5.32549 3.55838 0.0 
			-5.91737 2.45105 0.0 
			-6.28184 1.24954 0.0 
			-6.40491 -5.59935e-07 0.0 
			-6.28184 -1.24954 0.0 
			-5.91737 -2.45105 0.0 
			-5.32549 -3.55838 0.0 
			-4.52896 -4.52896 0.0 
			-3.55838 -5.32549 0.0 
			-2.45105 -5.91737 0.0 
			-1.24954 -6.28184 0.0 
			8.39903e-07 -6.40491 0.0 
			1.24954 -6.28184 0.0 
			2.45105 -5.91737 0.0 
			3.55838 -5.32549 0.0 
			4.52896 -4.52895 0.0 
			5.32549 -3.55838 0.0 
			5.91737 -2.45105 0.0 
			6.28184 -1.24953 0.0 
			11.2088 1.10397 0.0 
			10.7781 3.2695 0.0 
			9.93314 5.30938 0.0 
			8.70647 7.14522 0.0 
			7.14522 8.70647 0.0 
			5.30938 9.93314 0.0 
			3.2695 10.7781 0.0 
			1.10397 11.2088 0.0 
			-1.10397 11.2088 0.0 
			-3.2695 10.7781 0.0 
			-5.30938 9.93314 0.0 
			-7.14522 8.70647 0.0 
			-8.70647 7.14522 0.0 
			-9.93315 5.30938 0.0 
			-10.7781 3.2695 0.0 
			-11.2088 1.10397 0.0 
			-11.2088 -1.10398 0.0 
			-10.7781 -3.2695 0.0 
			-9.93314 -5.30938 0.0 
			-8.70647 -7.14522 0.0 
			-7.14522 -8.70648 0.0 
			-5.30938 -9.93315 0.0 
			-3.2695 -10.7781 0.0 
			-1.10397 -11.2088 0.0 
			1.10398 -11.2088 0.0 
			3.2695 -10.7781 0.0 
			5.30938 -9.93314 0.0 
			7.14522 -8.70647 0.0 
			8.70648 -7.14522 0.0 
			9.93315 -5.30937 0.0 
			10.7781 -3.2695 0.0 
			11.2088 -1.10397 0.0 
			20.0001 0 0.0 
			19.6158 3.90182 0.0 
			18.4777 7.6537 0.0 
			16.6295 11.1114 0.0 
			14.1422 14.1422 0.0 
			11.1114 16.6295 0.0 
			7.6537 18.4777 0.0 
			3.90182 19.6158 0.0 
			-8.74231e-07 20.0001 0.0 
			-3.90182 19.6158 0.0 
			-7.6537 18.4777 0.0 
			-11.1114 16.6295 0.0 
			-14.1422 14.1422 0.0 
			-16.6295 11.1114 0.0 
			-18.4777 7.65369 0.0 
			-19.6158 3.90182 0.0 
			-20.0001 -1.74846e-06 0.0 
			-19.6158 -3.90182 0.0 
			-18.4777 -7.6537 0.0 
			-16.6295 -11.1114 0.0 
			-14.1422 -14.1422 0.0 
			-11.1114 -16.6295 0.0 
			-7.65369 -18.4777 0.0 
			-3.90182 -19.6158 0.0 
			2.62269e-06 -20.0001 0.0 
			3.90182 -19.6158 0.0 
			7.6537 -18.4777 0.0 
			11.1114 -16.6295 0.0 
			14.1422 -14.1422 0.0 
			16.6295 -11.1114 0.0 
			18.4777 -7.65369 0.0 
			19.6158 -3.90182 0.0 
		</DataArray>
		</Points>
		<Cells>
			<DataArray type="UInt32" Name="connectivity" Format="ascii">
				0 32 1 
				0 63 32 
				1 33 2 
				1 32 33 
				2 34 3 
				2 33 34 
				3 35 4 
				3 34 35 
				4 36 5 
				4 35 36 
				5 37 6 
				5 36 37 
				6 38 7 
				6 37 38 
				7 39 8 
				7 38 39 
				8 40 9 
				8 39 40 
				9 41 10 
				9 40 41 
				10 42 11 
				10 41 42 
				11 43 12 
				11 42 43 
				12 44 13 
				12 43 44 
				13 45 14 
				13 44 45 
				14 46 15 
				14 45 46 
				15 47 16 
				15 46 47 
				16 48 17 
				16 47 48 
				17 49 18 
				17 48 49 
				18 50 19 
				18 49 50 
				19 51 20 
				19 50 51 
				20 52 21 
				20 51 52 
				21 53 22 
				21 52 53 
				22 54 23 
				22 53 54 
				23 55 24 
				23 54 55 
				24 56 25 
				24 55 56 
				25 57 26 
				25 56 57 
				26 58 27 
				26 57 58 
				27 59 28 
				27 58 59 
				28 60 29 
				28 59 60 
				29 61 30 
				29 60 61 
				30 62 31 
				30 61 62 
				31 63 0 
				31 62 63 
				32 64 65 
				32 63 64 
				33 65 66 
				33 32 65 
				34 66 67 
				34 33 66 
				35 67 68 
				35 34 67 
				36 68 69 
				36 35 68 
				37 69 70 
				37 36 69 
				38 70 71 
				38 37 70 
				39 71 72 
				39 38 71 
				40 72 73 
				40 39 72 
				41 73 74 
				41 40 73 
				42 74 75 
				42 41 74 
				43 75 76 
				43 42 75 
				44 76 77 
				44 43 76 
				45 77 78 
				45 44 77 
				46 78 79 
				46 45 78 
				47 79 80 
				47 46 79 
				48 80 81 
				48 47 80 
				49 81 82 
				49 48 81 
				50 82 83 
				50 49 82 
				51 83 84 
				51 50 83 
				52 84 85 
				52 51 84 
				53 85 86 
				53 52 85 
				54 86 87 
				54 53 86 
				55 87 88 
				55 54 87 
				56 88 89 
				56 55 88 
				57 89 90 
				57 56 89 
				58 90 91 
				58 57 90 
				59 91 92 
				59 58 91 
				60 92 93 
				60 59 92 
				61 93 94 
				61 60 93 
				62 94 95 
				62 61 94 
				63 95 64 
				63 62 95 
				64 96 65 
				64 127 96 
				65 97 66 
				65 96 97 
				66 98 67 
				66 97 98 
				67 99 68 
				67 98 99 
				68 100 69 
				68 99 100 
				69 101 70 
				69 100 101 
				70 102 71 
				70 101 102 
				71 103 72 
				71 102 103 
				72 104 73 
				72 103 104 
				73 105 74 
				73 104 105 
				74 106 75 
				74 105 106 
				75 107 76 
				75 106 107 
				76 108 77 
				76 107 108 
				77 109 78 
				77 108 109 
				78 110 79 
				78 109 110 
				79 111 80 
				79 110 111 
				80 112 81 
				80 111 112 
				81 113 82 
				81 112 113 
				82 114 83 
				82 113 114 
				83 115 84 
				83 114 115 
				84 116 85 
				84 115 116 
				85 117 86 
				85 116 117 
				86 118 87 
				86 117 118 
				87 119 88 
				87 118 119 
				88 120 89 
				88 119 120 
				89 121 90 
				89 120 121 
				90 122 91 
				90 121 122 
				91 123 92 
				91 122 123 
				92 124 93 
				92 123 124 
				93 125 94 
				93 124 125 
				94 126 95 
				94 125 126 
				95 127 64 
				95 126 127 
				96 128 129 
				96 127 128 
				97 129 130 
				97 96 129 
				98 130 131 
				98 97 130 
				99 131 132 
				99 98 131 
				100 132 133 
				100 99 132 
				101 133 134 
				101 100 133 