<VTKFile type="UnstructuredGrid" version="0.1" byte_order="LittleEndian">
<UnstructuredGrid>
	<Piece NumberOfPoints="80" NumberOfCells="128">
		<CellData Scalars="density" Vectors="velocity">
			<DataArray type="Float64" Name="density" Format="ascii">
				-nan
				nan
				-nan
				-nan
				0.876766
				0.56636
				0.937643
				0.669911
				0.947273
				0.74569
				0.964278
				0.822253
				1.01227
				0.900659
				1.09394
				0.973052
				1.18837
				1.04037
				1.29286
				1.11419
				1.3948
				1.19027
				1.45261
				1.23465
				1.45465
				1.22789
				1.3984
				1.17138
				nan
				1.06325
				-nan
				nan
				-nan
				-nan
				nan
				nan
				0.929559
				0.846369
				0.85219
				0.81016
				0.738519
				0.768331
				0.610654
				0.708254
				0.52244
				0.635974
				0.525222
				0.561488
				0.582172
				0.510375
				0.633866
				0.520796
				0.708738
				0.586594
				0.795585
				0.665206
				0.86559
				0.723195
				0.913549
				0.764078
				-nan
				0.782142
				-nan
				-nan
				nan
				nan
				1.12098
				0.683664
				1.07764
				0.755264
				1.02855
				0.811182
				0.935668
				0.841373
				0.870395
				0.886603
				0.858963
				0.954315
				0.907465
				1.03208
				0.998397
				1.10535
				1.12131
				1.16018
				1.27159
				1.20177
				1.42499
				1.23227
				1.55064
				1.24097
				1.62926
				1.2252
				-nan
				1.18693
				nan
				-nan
				nan
				nan
				1.54421
				1.04311
				1.35569
				0.922966
				1.27173
				0.916927
				1.1532
				0.908288
				1.02039
				0.884985
				0.897174
				0.849882
				0.803477
				0.80517
				0.737225
				0.75663
				0.690419
				0.713808
				0.67771
				0.68032
				0.725401
				0.674222
				0.826497
				0.690429
				0.924552
				0.712304
				nan
				0.67881
				nan
				nan
			</DataArray>
			<DataArray type="Float64" Name="mach-number" Format="ascii">
				-nan
				nan
				-nan
				-nan
				0.655042
				0.549535
				0.506423
				0.424776
				0.39998
				0.346026
				0.389361
				0.335314
				0.451058
				0.347858
				0.548592
				0.362935
				0.657566
				0.390189
				0.773168
				0.452484
				0.886616
				0.542216
				0.975403
				0.63348
				1.03502
				0.712878
				1.06783
				0.776669
				nan
				0.81483
				-nan
				nan
				-nan
				-nan
				nan
				nan
				0.858686
				0.589453
				0.84588
				0.608104
				0.827864
				0.545605
				0.815775
				0.455104
				0.769236
				0.359873
				0.592457
				0.301876
				0.408233
				0.29241
				0.391073
				0.242158
				0.446114
				0.154611
				0.470573
				0.104308
				0.44649
				0.116343
				0.407891
				0.146883
				-nan
				0.23977
				-nan
				-nan
				nan
				nan
				0.908389
				0.422793
				0.972446
				0.403395
				0.855065
				0.324599
				0.777672
				0.253413
				0.776441
				0.313402
				0.820567
				0.397732
				0.86722
				0.447081
				0.918414
				0.466681
				0.957285
				0.48878
				0.979707
				0.527698
				0.995554
				0.586172
				1.01407
				0.655382
				1.03765
				0.722754
				-nan
				0.772715
				nan
				-nan
				nan
				nan
				0.839585
				0.394443
				0.898825
				0.564764
				0.864353
				0.565087
				0.815636
				0.514536
				0.753924
				0.449383
				0.673335
				0.385802
				0.566302
				0.336331
				0.464878
				0.292504
				0.430865
				0.23277
				0.478888
				0.164363
				0.56727
				0.0708911
				0.667519
				0.0680645
				0.763127
				0.213352
				nan
				0.311384
				nan
				nan
			</DataArray>
			<DataArray type="Float64" Name="pressure" Format="ascii">
				-nan
				nan
				-nan
				-nan
				3.59884
				1.98035
				4.23926
				2.74441
				4.50037
				3.27727
				4.64634
				3.73731
				4.86316
				4.16275
				5.2094
				4.55871
				5.58359
				4.94561
				5.99647
				5.35621
				6.41162
				5.78337
				6.60451
				6.02136
				6.52627
				5.93859
				6.18753
				5.56037
				nan
				4.90259
				-nan
				nan
				-nan
				-nan
				nan
				nan
				3.77203
				3.73325
				3.38751
				3.5261
				2.803
				3.30389
				2.14431
				2.9831
				1.72031
				2.59974
				1.82416
				2.22225
				2.29052
				1.96639
				2.69779
				2.00647
				3.14623
				2.35978
				3.60904
				2.81311
				3.9494
				3.15266
				4.1236
				3.38056
				-nan
				3.4392
				-nan
				-nan
				nan
				nan
				4.65382
				2.89256
				4.39244
				3.33659
				4.34016
				3.75824
				3.91546
				3.96347
				3.51042
				4.19101
				3.34717
				4.53374
				3.53986
				4.95081
				3.99915
				5.36846
				4.65533
				5.6896
				5.48972
				5.9335
				6.34062
				6.10394
				7.00721
				6.12647
				7.3928
				6.00353
				-nan
				5.76116
				nan
				-nan
				nan
				nan
				7.14989
				5.07288
				5.99608
				4.27977
				5.62767
				4.27134
				5.08077
				4.25345
				4.462
				4.15451
				3.90249
				3.9837
				3.50894
				3.74874
				3.23446
				3.48113
				2.98086
				3.23821
				2.83199
				3.048
				2.97798
				3.00605
				3.39077
				3.0763
				3.76827
				3.16456
				nan
				2.90381
				nan
				nan
			</DataArray>
			<DataArray type="Float64" Name="velocity" NumberOfComponents="3" Format="ascii">
				-nan -nan 0.0 
				nan nan 0.0 
				-nan -nan 0.0 
				-nan -nan 0.0 
				-0.646097 1.43118 0.0 
				-1.12266 0.466852 0.0 
				-0.992486 0.798937 0.0 
				-1.01706 -0.0211019 0.0 
				-1.00869 0.215959 0.0 
				-0.585294 -0.627809 0.0 
				-0.973563 -0.273604 0.0 
				-0.0829862 -0.841767 0.0 
				-0.849437 -0.804276 0.0 
				0.26912 -0.842945 0.0 
				-0.497502 -1.32624 0.0 
				0.483535 -0.793821 0.0 
				0.084648 -1.68436 0.0 
				0.650027 -0.768573 0.0 
				0.843903 -1.78031 0.0 
				0.898013 -0.755988 0.0 
				1.63063 -1.54917 0.0 
				1.23627 -0.686669 0.0 
				2.24079 -1.01729 0.0 
				1.57872 -0.497595 0.0 
				2.57688 -0.297358 0.0 
				1.84765 -0.164808 0.0 
				2.61059 0.49826 0.0 
				1.97938 0.301304 0.0 
				nan nan 0.0 
				1.88781 0.849804 0.0 
				-nan -nan 0.0 
				nan nan 0.0 
				-nan -nan 0.0 
				-nan -nan 0.0 
				nan nan 0.0 
				nan nan 0.0 
				2.0122 0.374026 0.0 
				1.43104 -0.312665 0.0 
				1.72518 1.00282 0.0 
				1.49928 0.0734081 0.0 
				1.15506 1.51906 0.0 
				1.27531 0.407027 0.0 
				0.32326 1.77964 0.0 
				0.943004 0.576244 0.0 
				-0.621293 1.5303 0.0 
				0.631462 0.585172 0.0 
				-1.15925 0.602367 0.0 
				0.455688 0.545239 0.0 
				-0.86476 -0.412501 0.0 
				0.355208 0.578819 0.0 
				-0.202343 -0.932921 0.0 
				0.239001 0.509089 0.0 
				0.473576 -1.00628 0.0 
				0.1929 0.312122 0.0 
				0.890253 -0.783443 0.0 
				0.236316 0.0925797 0.0 
				1.00306 -0.516993 0.0 
				0.279742 -0.0659809 0.0 
				0.940162 -0.409244 0.0 
				0.273124 -0.24298 0.0 
				-nan -nan 0.0 
				0.331855 -0.493742 0.0 
				-nan -nan 0.0 
				-nan -nan 0.0 
				nan nan 0.0 
				nan nan 0.0 
				1.27881 1.77783 0.0 
				-0.598603 0.836956 0.0 
				0.349358 2.29656 0.0 
				-0.0883379 0.999325 0.0 
				-0.673646 1.96607 0.0 
				-0.588598 0.580495 0.0 
				-1.35562 1.3059 0.0 
				-0.61723 -0.20627 0.0 
				-1.78372 0.471496 0.0 
				-0.219098 -0.775893 0.0 
				-1.83355 -0.558044 0.0 
				0.289148 -0.984141 0.0 
				-1.29282 -1.5607 0.0 
				0.691513 -0.929597 0.0 
				-0.315535 -2.15186 0.0 
				0.926401 -0.789085 0.0 
				0.697168 -2.20008 0.0 
				1.08796 -0.675721 0.0 
				1.51874 -1.86941 0.0 
				1.26359 -0.572853 0.0 
				2.07855 -1.36154 0.0 
				1.47312 -0.461182 0.0 
				2.42565 -0.78868 0.0 
				1.69942 -0.284035 0.0 
				2.60936 -0.176286 0.0 
				1.89295 0.0149808 0.0 
				-nan -nan 0.0 
				1.97021 0.41918 0.0 
				nan nan 0.0 
				-nan -nan 0.0 
				nan nan 0.0 
				nan nan 0.0 
				2.13573 0.0893008 0.0 
				1.00433 0.224982 0.0 
				2.19184 0.445315 0.0 
				1.43349 -0.125276 0.0 
				1.93209 0.946344 0.0 
				1.43533 0.149485 0.0 
				1.52148 1.33736 0.0 
				1.26641 0.363223 0.0 
				0.988407 1.58202 0.0 
				1.05277 0.46786 0.0 
				0.362733 1.62153 0.0 
				0.86222 0.483043 0.0 
				-0.267306 1.37452 0.0 
				0.717711 0.471399 0.0 
				-0.744914 0.878933 0.0 
				0.57491 0.469654 0.0 
				-1.02409 0.270842 0.0 
				0.391329 0.437011 0.0 
				-1.06854 -0.447094 0.0 
				0.220478 0.347619 0.0 
				-0.738687 -1.14185 0.0 
				0.0860085 0.154828 0.0 
				-0.143024 -1.59336 0.0 
				0.0605864 -0.158833 0.0 
				0.614755 -1.71613 0.0 
				0.221254 -0.483907 0.0 
				nan nan 0.0 
				0.597315 -0.473183 0.0 
				nan nan 0.0 
				nan nan 0.0 
			</DataArray>
		</CellData>
		<Points>
		<DataArray type="Float64" NumberOfComponents="3" Format="ascii">
			0.5 0 0.0 
			0.46194 0.191342 0.0 
			0.353553 0.353553 0.0 
			0.191342 0.46194 0.0 
			-2.18557e-08 0.5 0.0 
			-0.191342 0.46194 0.0 
			-0.353553 0.353553 0.0 
			-0.46194 0.191342 0.0 
			-0.5 -4.37114e-08 0.0 
			-0.46194 -0.191342 0.0 
			-0.353553 -0.353553 0.0 
			-0.191342 -0.46194 0.0 
			6.55671e-08 -0.5 0.0 
			0.191342 -0.46194 0.0 
			0.353553 -0.353553 0.0 
			0.46194 -0.191342 0.0 
			0.884503 0.175939 0.0 
			0.749846 0.501031 0.0 
			0.501031 0.749846 0.0 
			0.175939 0.884503 0.0 
			-0.175939 0.884503 0.0 
			-0.501031 0.749846 0.0 
			-0.749846 0.501031 0.0 
			-0.884503 0.175939 0.0 
			-0.884503 -0.175939 0.0 
			-0.749846 -0.501031 0.0 
			-0.501031 -0.749846 0.0 
			-0.175939 -0.884503 0.0 
			0.175939 -0.884503 0.0 
			0.501031 -0.749846 0.0 
			0.749846 -0.501031 0.0 
			0.884503 -0.175938 0.0 
			2.20148 0 0.0 
			2.0339 0.842468 0.0 
			1.55668 1.55668 0.0 
			0.842468 2.0339 0.0 
			-9.62295e-08 2.20148 0.0 
			-0.842468 2.0339 0.0 
			-1.55668 1.55668 0.0 
			-2.0339 0.842468 0.0 
			-2.20148 -1.92459e-07 0.0 
			-2.0339 -0.842468 0.0 
			-1.55668 -1.55668 0.0 
			-0.842468 -2.0339 0.0 
			2.88689e-07 -2.20148 0.0 
			0.842468 -2.0339 0.0 
			1.55668 -1.55668 0.0 
			2.0339 -0.842468 0.0 
			6.28184 1.24954 0.0 
			5.32549 3.55838 0.0 
			3.55838 5.32549 0.0 
			1.24954 6.28184 0.0 
			-1.24954 6.28184 0.0 
			-3.55838 5.32549 0.0 
			-5.32549 3.55838 0.0 
			-6.28184 1.24954 0.0 
			-6.28184 -1.24954 0.0 
			-5.32549 -3.55838 0.0 
			-3.55838 -5.32549 0.0 
			-1.24954 -6.28184 0.0 
			1.24954 -6.28184 0.0 
			3.55838 -5.32549 0.0 
			5.32549 -3.55838 0.0 
			6.28184 -1.24953 0.0 
			20.0001 0 0.0 
			18.4777 7.6537 0.0 
			14.1422 14.1422 0.0 
			7.6537 18.4777 0.0 
			-8.74231e-07 20.0001 0.0 
			-7.6537 18.4777 0.0 
			-14.1422 14.1422 0.0 
			-18.4777 7.65369 0.0 
			-20.0001 -1.74846e-06 0.0 
			-18.4777 -7.6537 0.0 
			-14.1422 -14.1422 0.0 
			-7.65369 -18.4777 0.0 
			2.62269e-06 -20.0001 0.0 
			7.6537 -18.4777 0.0 
			14.1422 -14.1422 0.0 
			18.4777 -7.65369 0.0 
		</DataArray>
		</Points>
		<Cells>
			<DataArray type="UInt32" Name="connectivity" Format="ascii">
				0 16 1 
				0 31 16 
				1 17 2 
				1 16 17 
				2 18 3 
				2 17 18 
				3 19 4 
				3 18 19 
				4 20 5 
				4 19 20 
				5 21 6 
				5 20 21 
				6 22 7 
				6 21 22 
				7 23 8 
				7 22 23 
				8 24 9 
				8 23 24 
				9 25 10 
				9 24 25 
				10 26 11 
				10 25 26 
				11 27 12 
				11 26 27 
				12 28 13 
				12 27 28 
				13 29 14 
				13 28 29 
				14 30 15 
				14 29 30 
				15 31 0 
				15 30 31 
				16 32 33 
				16 31 32 
				17 33 34 
				17 16 33 
				18 34 35 
				18 17 34 
				19 35 36 
				19 18 35 
				20 36 37 
				20 19 36 
				21 37 38 
				21 20 37 
				22 38 39 
				22 21 38 
				23 39 40 
				23 22 39 
				24 40 41 
				24 23 40 
				25 41 42 
				25 24 41 
				26 42 43 
				26 25 42 
				27 43 44 
				27 26 43 
				28 44 45 
				28 27 44 
				29 45 46 
				29 28 45 
				30 46 47 
				30 29 46 
				31 47 32 
				31 30 47 
				32 48 33 
				32 63 48 
				33 49 34 
				33 48 49 
				34 50 35 
				34 49 50 
				35 51 36 
				35 50 51 
				36 52 37 
				36 51 52 
				37 53 38 
				37 52 53 
				38 54 39 
				38 53 54 
				39 55 40 
				39 54 55 
				40 56 41 
				40 55 56 
				41 57 42 
				41 56 57 
				42 58 43 
				42 57 58 
				43 59 44 
				43 58 59 
				44 60 45 
				44 59 60 
				45 61 46 
				45 60 61 
				46 62 47 
				46 61 62 
				47 63 32 
				47 62 63 
				48 64 65 
				48 63 64 
				49 65 66 
				49 48 65 
				50 66 67 
				50 49 66 
				51 67 68 
				51 50 67 
				52 68 69 
				52 51 68 
				53 69 70 
				53 52 69 
				54 70 71 
				54 53 70 
				55 71 72 
				55 54 71 
				56 72 73 
				56 55 72 
				57 73 74 
				57 56 73 
				58 74 75 
				58 57 74 
				59 75 76 
				59 58 75 
				60 76 77 
				60 59 76 
				61 77 78 
				61 60 77 
				62 78 79 
				62 61 78 
				63 79 64 
				63 62 79 
			</DataArray>
			<DataArray type="UInt32" Name="offsets" Format="ascii">
				3
				6
				9
				12
				15
				18
				21
				24
				27
				30
				33
				36
				39
				42
				45
				48
				51
				54
				57
				60
				63
				66
				69
				72
				75
				78
				81
				84
				87
				90
				93
				96
				99
				102
				105
				108
				111
				114
				117
				120
				123
				126
				129
				132
				135
				138
				141
				144
				147
				150
				153
				156
				159
				162
				165
				168
				171
				174
				177
				180
				183
				186
				189
				192
				195
				198
				201
				204
				207
				210
				213
				216
				219
				222
				225
				228
				231
				234
				237
				240
				243
				246
				249
				252
				255
				258
				261
				264
				267
				270
				273
				276
				279
				282
				285
				288
				291
				294
				297
				300
				303
				306
				309
				312
				315
				318
				321
				324
				327
				330
				333
				336
				339
				342
				345
				348
				351
				354
				357
				360
				363
				366
				369
				372
				375
				378
				381
				384
			</DataArray>
			<DataArray type="Int32" Name="types" Format="ascii">
				5
				5
				5
				5
				5
				5
				5
				5
				5
				5
				5
				5
				5
				5
				5
				5
				5
				5
				5
				5
				5
				5
				5
				5
				5
				5
				5
				5
				5
				5
				5
				5
				5
				5
				5
				5
				5
				5
				5
				5
				5
				5
				5
				5
				5
				5
				5
				5
				5
				5
				5
				5
				5
				5
				5
				5
				5
				5
				5
				5
				5
				5
				5
				5
				5
				5
				5
				5
				5
				5
				5
				5
				5
				5
				5
				5
				5
				5
				5
				5
				5
				5
				5
				5
				5
				5
				5
				5
				5
				5
				5
				5
				5
				5
				5
				5
				5
				5
				5
				5
				5
				5
				5
				5
				5
				5
				5
				5
				5
				5
				5
				5
				5
				5
				5
				5
				5
				5
				5
				5
				5
				5
				5
				5
				5
				5
				5
				5
			</DataArray>
		</Cells>
	</Piece>
</UnstructuredGrid>
</VTKFile>