<VTKFile type="UnstructuredGrid" version="0.1" byte_order="LittleEndian">
<UnstructuredGrid>
	<Piece NumberOfPoints="4224" NumberOfCells="8192">
		<CellData Scalars="density" Vectors="velocity">
			<DataArray type="Float64" Name="density" Format="ascii">
				1.06592
				1.06548
				1.06508
				1.06499
				1.06363
				1.06378
				1.06144
				1.06202
				1.05817
				1.05943
				1.0536
				1.05568
				1.04766
				1.05067
				1.04034
				1.04433
				1.03167
				1.0367
				1.02175
				1.02781
				1.01067
				1.01777
				0.998548
				1.00666
				0.985492
				0.994607
				0.971626
				0.981711
				0.957056
				0.968087
				0.941904
				0.953836
				0.926255
				0.939071
				0.910243
				0.923882
				0.893964
				0.908391
				0.877554
				0.892703
				0.861153
				0.876944
				0.844854
				0.861245
				0.828832
				0.845723
				0.813273
				0.830549
				0.798353
				0.815907
				0.784307
				0.801982
				0.771314
				0.789
				0.759709
				0.777186
				0.749827
				0.766869
				0.742
				0.758371
				0.73643
				0.751972
				0.733611
				0.747973
				0.733514
				0.746637
				0.736314
				0.747998
				0.741743
				0.752027
				0.749507
				0.758441
				0.759334
				0.766964
				0.770919
				0.777303
				0.783854
				0.789135
				0.797889
				0.802132
				0.812777
				0.816064
				0.828308
				0.830707
				0.844299
				0.845867
				0.860521
				0.861365
				0.876857
				0.877024
				0.893185
				0.892722
				0.909326
				0.908339
				0.925232
				0.923733
				0.940727
				0.938825
				0.955744
				0.953485
				0.970181
				0.967636
				0.983958
				0.981188
				0.996993
				0.994063
				1.0092
				1.00619
				1.02052
				1.01748
				1.03089
				1.0279
				1.04026
				1.03737
				1.04856
				1.04585
				1.05576
				1.0533
				1.06182
				1.05966
				1.06671
				1.06492
				1.0704
				1.06903
				1.07287
				1.07199
				1.07411
				1.07377
				1.07411
				1.07436
				1.07287
				1.07377
				1.0704
				1.07199
				1.06671
				1.06903
				1.06183
				1.06492
				1.05577
				1.05967
				1.04857
				1.0533
				1.04026
				1.04586
				1.0309
				1.03738
				1.02053
				1.0279
				1.00921
				1.01749
				0.997003
				1.00619
				0.983968
				0.994072
				0.970192
				0.981198
				0.955757
				0.967648
				0.940731
				0.953492
				0.925249
				0.938839
				0.90935
				0.923751
				0.893196
				0.908353
				0.876873
				0.892738
				0.860539
				0.87704
				0.844316
				0.861382
				0.828328
				0.845884
				0.81281
				0.830734
				0.797904
				0.816083
				0.783879
				0.802154
				0.770945
				0.789157
				0.75936
				0.777329
				0.749536
				0.766991
				0.741772
				0.75847
				0.736345
				0.752056
				0.733545
				0.748028
				0.733642
				0.746667
				0.736461
				0.748003
				0.74203
				0.752002
				0.749856
				0.758399
				0.759736
				0.766896
				0.771342
				0.777213
				0.784332
				0.789025
				0.798376
				0.802006
				0.813295
				0.815929
				0.828853
				0.83057
				0.844874
				0.845743
				0.861172
				0.861264
				0.877572
				0.876962
				0.893982
				0.89272
				0.910259
				0.908407
				0.926262
				0.923892
				0.941922
				0.939086
				0.95707
				0.953849
				0.971639
				0.968099
				0.985503
				0.981722
				0.998558
				0.994617
				1.01068
				1.00667
				1.02176
				1.01778
				1.03168
				1.02782
				1.04034
				1.0367
				1.04766
				1.04434
				1.0536
				1.05067
				1.05817
				1.05569
				1.06144
				1.05943
				1.06363
				1.06202
				1.06508
				1.06378
				1.06592
				1.06499
				1.06483
				1.06613
				1.06391
				1.06571
				1.0625
				1.06465
				1.06055
				1.06301
				1.05771
				1.06055
				1.05379
				1.05701
				1.04872
				1.05228
				1.0425
				1.04635
				1.03515
				1.03923
				1.02674
				1.03097
				1.01735
				1.02167
				1.00707
				1.0114
				0.995999
				1.00027
				0.984216
				0.98836
				0.971816
				0.975773
				0.958885
				0.962598
				0.945518
				0.948927
				0.931799
				0.934851
				0.917832
				0.920469
				0.903718
				0.905886
				0.889571
				0.89121
				0.875511
				0.876559
				0.861672
				0.862064
				0.848209
				0.847872
				0.835296
				0.834153
				0.823124
				0.821088
				0.811914
				0.808892
				0.801913
				0.797796
				0.793406
				0.788087
				0.786678
				0.780067
				0.781998
				0.774013
				0.779603
				0.770216
				0.779622
				0.768876
				0.782057
				0.770072
				0.78677
				0.773736
				0.793525
				0.779649
				0.802051
				0.787549
				0.812063
				0.797146
				0.823277
				0.808138
				0.835441
				0.820237
				0.848337
				0.83321
				0.861774
				0.846845
				0.875577
				0.860954
				0.889592
				0.875365
				0.903683
				0.889929
				0.917729
				0.904516
				0.931623
				0.919008
				0.945259
				0.933294
				0.958549
				0.947273
				0.971404
				0.960852
				0.983748
				0.973946
				0.995508
				0.986477
				1.00662
				0.998372
				1.01702
				1.00956
				1.02665
				1.01999
				1.03546
				1.02959
				1.04341
				1.03832
				1.05046
				1.04613
				1.05656
				1.05299
				1.0617
				1.05884
				1.06583
				1.06368
				1.06896
				1.06746
				1.07105
				1.07018
				1.07209
				1.07182
				1.07209
				1.07236
				1.07105
				1.07182
				1.06896
				1.07018
				1.06584
				1.06747
				1.0617
				1.06368
				1.05656
				1.05885
				1.05046
				1.05299
				1.04342
				1.04614
				1.03547
				1.03833
				1.02665
				1.0296
				1.01702
				1.01999
				1.00663
				1.00957
				0.995517
				0.998381
				0.983758
				0.986486
				0.971413
				0.973956
				0.958561
				0.960862
				0.945272
				0.947285
				0.931636
				0.933308
				0.917743
				0.919023
				0.903697
				0.904531
				0.889607
				0.889944
				0.875594
				0.875381
				0.861793
				0.860971
				0.848357
				0.846866
				0.835461
				0.83323
				0.823298
				0.820259
				0.812085
				0.808158
				0.802075
				0.797171
				0.79355
				0.787574
				0.786796
				0.779676
				0.782084
				0.773764
				0.779649
				0.7701
				0.77963
				0.768904
				0.782025
				0.770244
				0.786705
				0.77404
				0.793431
				0.780094
				0.801937
				0.788113
				0.811937
				0.79782
				0.823147
				0.808915
				0.835317
				0.821111
				0.848229
				0.834173
				0.86169
				0.847891
				0.875529
				0.862083
				0.889588
				0.876578
				0.903734
				0.891226
				0.917847
				0.905902
				0.931811
				0.920484
				0.945531
				0.934864
				0.958897
				0.94894
				0.971827
				0.96261
				0.984226
				0.975785
				0.996009
				0.98837
				1.00708
				1.00028
				1.01736
				1.01141
				1.02675
				1.02168
				1.03516
				1.03098
				1.0425
				1.03923
				1.04873
				1.04635
				1.05379
				1.05229
				1.05772
				1.05701
				1.06055
				1.06056
				1.0625
				1.06302
				1.06391
				1.06465
				1.06483
				1.06572
				1.06475
				1.06355
				1.06395
				1.06299
				1.06259
				1.06174
				1.06059
				1.06013
				1.0577
				1.05789
				1.05382
				1.05474
				1.04891
				1.0506
				1.043
				1.04547
				1.0361
				1.03937
				1.0283
				1.03234
				1.01963
				1.02445
				1.01019
				1.01577
				1.00003
				1.00636
				0.989226
				0.996294
				0.977851
				0.985646
				0.96598
				0.974481
				0.953689
				0.962876
				0.941061
				0.950905
				0.928185
				0.938652
				0.915157
				0.926206
				0.902082
				0.913663
				0.889073
				0.901131
				0.876259
				0.888728
				0.863786
				0.876587
				0.851816
				0.864856
				0.84053
				0.853706
				0.830135
				0.843322
				0.820864
				0.833919
				0.812972
				0.825729
				0.806719
				0.819001
				0.802352
				0.813975
				0.800075
				0.81086
				0.800006
				0.809812
				0.802149
				0.810881
				0.806386
				0.814015
				0.81252
				0.819059
				0.820307
				0.825803
				0.829487
				0.834004
				0.839802
				0.843416
				0.851021
				0.853805
				0.862935
				0.864959
				0.875364
				0.876689
				0.888139
				0.888827
				0.901117
				0.901227
				0.91417
				0.913752
				0.927182
				0.926287
				0.940049
				0.938728
				0.952674
				0.950976
				0.964974
				0.962947
				0.976867
				0.974559
				0.988282
				0.985742
				0.999152
				0.996429
				1.00942
				1.00656
				1.01902
				1.01608
				1.02791
				1.02493
				1.03604
				1.03308
				1.04337
				1.04048
				1.04986
				1.0471
				1.05549
				1.0529
				1.06022
				1.05785
				1.06403
				1.06193
				1.06691
				1.06513
				1.06883
				1.06742
				1.06979
				1.0688
				1.06979
				1.06927
				1.06883
				1.0688
				1.06691
				1.06742
				1.06403
				1.06513
				1.06022
				1.06193
				1.05549
				1.05785
				1.04987
				1.0529
				1.04337
				1.0471
				1.03604
				1.04049
				1.02791
				1.03309
				1.01902
				1.02494
				1.00942
				1.01608
				0.99916
				1.00657
				0.988291
				0.996437
				0.976877
				0.98575
				0.964984
				0.974569
				0.952686
				0.962957
				0.940061
				0.950987
				0.927195
				0.938739
				0.914184
				0.9263
				0.901132
				0.913766
				0.888155
				0.901241
				0.875381
				0.888843
				0.862954
				0.876706
				0.85104
				0.864977
				0.839822
				0.853824
				0.829508
				0.843436
				0.820329
				0.834025
				0.812544
				0.825825
				0.806411
				0.819082
				0.802174
				0.814038
				0.800031
				0.810905
				0.800101
				0.809836
				0.802377
				0.810884
				0.806744
				0.813998
				0.812995
				0.819024
				0.820886
				0.825751
				0.830156
				0.83394
				0.840551
				0.843343
				0.851835
				0.853724
				0.863805
				0.864875
				0.876276
				0.876604
				0.889089
				0.888745
				0.902097
				0.901146
				0.915171
				0.913677
				0.928199
				0.926219
				0.941073
				0.938664
				0.953701
				0.950917
				0.965991
				0.962887
				0.977862
				0.974492
				0.989236
				0.985655
				1.00004
				0.996304
				1.0102
				1.00637
				1.01964
				1.01577
				1.0283
				1.02446
				1.03611
				1.03235
				1.043
				1.03937
				1.04892
				1.04548
				1.05382
				1.05061
				1.05771
				1.05474
				1.06059
				1.05789
				1.06259
				1.06013
				1.06395
				1.06174
				1.06475
				1.063
				1.06109
				1.06271
				1.06007
				1.06227
				1.05864
				1.06116
				1.05683
				1.05951
				1.05427
				1.05714
				1.05086
				1.05393
				1.04661
				1.04987
				1.04156
				1.04498
				1.03572
				1.03928
				1.02917
				1.03281
				1.02193
				1.02562
				1.01406
				1.01773
				1.00559
				1.0092
				0.99659
				1.00007
				0.987095
				0.9904
				0.977166
				0.98024
				0.966866
				0.969657
				0.956263
				0.958718
				0.945433
				0.9475
				0.934461
				0.936087
				0.92344
				0.92457
				0.912474
				0.91305
				0.901679
				0.901641
				0.891184
				0.890469
				0.881135
				0.879673
				0.871693
				0.869414
				0.863037
				0.859868
				0.855362
				0.851228
				0.848874
				0.843709
				0.843777
				0.837532
				0.840257
				0.83291
				0.83846
				0.830025
				0.838465
				0.829009
				0.840274
				0.829908
				0.843805
				0.832678
				0.848911
				0.837192
				0.855406
				0.843269
				0.863087
				0.850696
				0.871747
				0.859255
				0.881191
				0.868731
				0.891242
				0.878931
				0.901739
				0.889677
				0.912539
				0.900811
				0.923513
				0.912194
				0.934548
				0.923699
				0.945542
				0.935216
				0.956405
				0.946644
				0.967054
				0.957895
				0.977415
				0.968887
				0.987422
				0.979547
				0.997013
				0.989807
				1.00613
				0.999606
				1.01473
				1.00889
				1.02277
				1.01761
				1.0302
				1.02572
				1.03699
				1.03317
				1.0431
				1.03994
				1.04851
				1.04599
				1.05319
				1.05128
				1.05712
				1.05581
				1.06029
				1.05954
				1.06268
				1.06246
				1.06428
				1.06455
				1.06508
				1.06581
				1.06508
				1.06623
				1.06428
				1.06581
				1.06268
				1.06455
				1.06029
				1.06246
				1.05713
				1.05954
				1.05319
				1.05581
				1.04851
				1.05129
				1.0431
				1.04599
				1.03699
				1.03994
				1.0302
				1.03318
				1.02278
				1.02572
				1.01474
				1.01762
				1.00614
				1.0089
				0.99702
				0.999614
				0.98743
				0.989814
				0.977424
				0.979555
				0.967064
				0.968897
				0.956415
				0.957906
				0.945554
				0.946656
				0.93456
				0.935228
				0.923526
				0.923712
				0.912553
				0.912207
				0.901754
				0.900825
				0.891258
				0.889693
				0.881208
				0.878948
				0.871764
				0.868749
				0.863105
				0.859273
				0.855426
				0.850716
				0.848931
				0.843289
				0.843825
				0.837213
				0.840296
				0.8327
				0.838487
				0.829931
				0.838482
				0.829032
				0.840278
				0.830047
				0.843797
				0.832932
				0.848894
				0.837553
				0.855381
				0.84373
				0.863056
				0.851248
				0.87171
				0.859886
				0.881152
				0.869432
				0.8912
				0.87969
				0.901694
				0.890485
				0.912489
				0.901656
				0.923453
				0.913064
				0.934473
				0.924583
				0.945444
				0.9361
				0.956273
				0.947512
				0.966876
				0.958729
				0.977176
				0.969667
				0.987104
				0.98025
				0.996598
				0.990408
				1.0056
				1.00008
				1.01406
				1.00921
				1.02194
				1.01774
				1.02917
				1.02562
				1.03573
				1.03282
				1.04156
				1.03929
				1.04662
				1.04499
				1.05086
				1.04988
				1.05427
				1.05394
				1.05683
				1.05715
				1.05864
				1.05951
				1.06007
				1.06116
				1.06109
				1.06227
				1.05934
				1.05787
				1.05854
				1.05728
				1.05721
				1.05602
				1.05528
				1.0545
				1.05263
				1.05244
				1.04927
				1.04964
				1.04523
				1.04612
				1.04054
				1.04194
				1.03522
				1.03713
				1.02928
				1.03173
				1.02275
				1.02576
				1.01566
				1.01924
				1.00803
				1.01221
				0.999888
				1.00468
				0.991292
				0.9967
				0.982285
				0.988307
				0.972926
				0.979553
				0.96328
				0.970494
				0.953417
				0.961195
				0.943417
				0.951728
				0.933368
				0.942174
				0.923366
				0.932623
				0.913522
				0.923173
				0.903955
				0.913937
				0.894801
				0.905037
				0.886206
				0.896609
				0.878336
				0.888804
				0.871367
				0.881782
				0.865479
				0.875713
				0.860852
				0.870766
				0.857646
				0.867099
				0.855985
				0.864841
				0.855934
				0.864082
				0.857498
				0.86485
				0.860609
				0.867117
				0.865147
				0.870793
				0.870953
				0.875749
				0.877851
				0.881826
				0.885657
				0.888856
				0.894199
				0.896669
				0.903312
				0.905104
				0.912848
				0.914013
				0.922673
				0.923261
				0.932667
				0.932726
				0.942724
				0.9423
				0.952748
				0.951885
				0.962652
				0.961395
				0.972362
				0.970752
				0.981808
				0.979886
				0.990928
				0.988735
				0.999665
				0.997243
				1.00797
				1.00536
				1.0158
				1.01304
				1.02311
				1.02024
				1.02986
				1.02693
				1.03603
				1.03308
				1.04158
				1.03865
				1.0465
				1.04362
				1.05074
				1.04797
				1.05431
				1.05168
				1.05719
				1.05474
				1.05935
				1.05713
				1.0608
				1.05885
				1.06153
				1.05988
				1.06153
				1.06023
				1.0608
				1.05988
				1.05935
				1.05885
				1.05719
				1.05714
				1.05432
				1.05474
				1.05075
				1.05169
				1.0465
				1.04797
				1.04159
				1.04362
				1.03604
				1.03865
				1.02987
				1.03308
				1.02311
				1.02694
				1.0158
				1.02025
				1.00798
				1.01305
				0.999672
				1.00537
				0.990935
				0.99725
				0.981816
				0.988743
				0.972371
				0.979894
				0.962662
				0.970761
				0.952758
				0.961405
				0.942735
				0.951895
				0.932679
				0.942311
				0.922685
				0.932738
				0.912861
				0.923273
				0.903326
				0.914026
				0.894214
				0.905118
				0.885673
				0.896683
				0.877867
				0.888871
				0.870971
				0.881842
				0.865165
				0.875766
				0.860628
				0.870811
				0.857518
				0.867135
				0.855954
				0.864869
				0.856004
				0.8641
				0.857665
				0.86486
				0.860871
				0.867117
				0.865497
				0.870784
				0.871384
				0.87573
				0.878353
				0.881798
				0.886222
				0.88882
				0.894816
				0.896624
				0.90397
				0.905051
				0.913536
				0.91395
				0.92338
				0.923186
				0.93338
				0.932635
				0.943429
				0.942186
				0.953428
				0.951739
				0.96329
				0.961205
				0.972936
				0.970503
				0.982294
				0.979561
				0.9913
				0.988315
				0.999896
				0.996707
				1.00803
				1.00469
				1.01567
				1.01221
				1.02276
				1.01925
				1.02929
				1.02576
				1.03522
				1.03174
				1.04054
				1.03714
				1.04523
				1.04194
				1.04927
				1.04612
				1.05263
				1.04964
				1.05528
				1.05244
				1.05721
				1.0545
				1.05854
				1.05602
				1.05934
				1.05728
				1.05331
				1.05515
				1.05234
				1.05475
				1.05105
				1.05375
				1.04943
				1.05225
				1.04718
				1.05012
				1.04431
				1.04737
				1.0409
				1.04407
				1.03698
				1.04024
				1.03257
				1.03589
				1.02768
				1.03103
				1.02234
				1.02567
				1.01654
				1.01982
				1.01031
				1.01349
				1.00367
				1.00671
				0.996651
				0.999508
				0.989297
				0.991931
				0.981653
				0.984023
				0.973772
				0.975834
				0.965714
				0.967426
				0.957547
				0.958864
				0.949346
				0.950222
				0.941196
				0.941584
				0.93319
				0.93304
				0.92543
				0.924692
				0.918032
				0.916655
				0.911118
				0.909052
				0.904821
				0.902018
				0.89928
				0.895698
				0.894633
				0.890242
				0.891011
				0.885797
				0.888527
				0.882496
				0.887264
				0.880451
				0.887269
				0.879736
				0.888541
				0.880375
				0.891036
				0.882346
				0.894669
				0.885576
				0.899328
				0.889957
				0.904882
				0.895355
				0.911192
				0.901625
				0.91812
				0.908618
				0.925536
				0.916189
				0.933314
				0.924206
				0.941344
				0.932542
				0.949522
				0.941088
				0.957759
				0.94974
				0.965971
				0.958409
				0.974084
				0.967014
				0.982035
				0.975481
				0.989764
				0.983748
				0.99722
				0.991755
				1.00436
				0.999452
				1.01113
				1.00679
				1.01751
				1.01373
				1.02346
				1.02024
				1.02895
				1.02628
				1.03396
				1.03183
				1.03846
				1.03686
				1.04244
				1.04134
				1.04588
				1.04526
				1.04877
				1.04861
				1.05109
				1.05136
				1.05284
				1.05352
				1.05401
				1.05506
				1.05459
				1.05599
				1.05459
				1.0563
				1.05401
				1.05599
				1.05284
				1.05506
				1.05109
				1.05352
				1.04877
				1.05136
				1.04588
				1.04861
				1.04244
				1.04526
				1.03846
				1.04134
				1.03396
				1.03686
				1.02895
				1.03183
				1.02346
				1.02629
				1.01752
				1.02025
				1.01114
				1.01374
				1.00436
				1.0068
				0.997226
				0.999458
				0.989771
				0.991762
				0.982042
				0.983755
				0.974092
				0.975489
				0.965979
				0.967022
				0.957768
				0.958419
				0.949532
				0.94975
				0.941354
				0.941099
				0.933325
				0.932554
				0.925547
				0.924218
				0.918133
				0.916202
				0.911205
				0.908631
				0.904896
				0.901639
				0.899342
				0.89537
				0.894684
				0.889973
				0.891051
				0.885592
				0.888557
				0.882363
				0.887285
				0.880392
				0.88728
				0.879753
				0.888543
				0.880468
				0.891026
				0.882513
				0.894649
				0.885813
				0.899295
				0.890258
				0.904836
				0.895714
				0.911131
				0.902033
				0.918045
				0.909065
				0.925443
				0.916668
				0.933201
				0.924705
				0.941207
				0.933052
				0.949357
				0.941594
				0.957557
				0.950233
				0.965723
				0.958874
				0.97378
				0.967435
				0.981661
				0.975843
				0.989305
				0.98403
				0.996658
				0.991939
				1.00367
				0.999515
				1.01032
				1.00671
				1.01655
				1.01349
				1.02234
				1.01982
				1.02769
				1.02568
				1.03257
				1.03104
				1.03698
				1.03589
				1.0409
				1.04024
				1.04432
				1.04407
				1.04719
				1.04737
				1.04943
				1.05012
				1.05105
				1.05225
				1.05234
				1.05375
				1.05331
				1.05475
				1.04991
				1.04826
				1.04928
				1.04775
				1.04819
				1.04669
				1.04657
				1.04544
				1.04438
				1.04373
				1.04174
				1.04146
				1.03866
				1.03872
				1.03515
				1.03557
				1.03121
				1.03201
				1.02684
				1.02806
				1.02204
				1.02371
				1.01684
				1.01897
				1.01124
				1.01386
				1.00528
				1.00839
				0.998974
				1.00258
				0.99237
				0.996474
				0.985506
				0.990101
				0.978431
				0.983504
				0.971198
				0.976734
				0.963867
				0.969845
				0.956509
				0.962899
				0.949199
				0.955966
				0.942021
				0.949123
				0.935071
				0.942455
				0.928451
				0.936057
				0.922271
				0.93003
				0.91665
				0.924481
				0.91171
				0.919524
				0.90757
				0.915271
				0.904341
				0.911829
				0.902122
				0.909294
				0.900979
				0.907743
				0.900953
				0.907224
				0.902043
				0.907755
				0.904214
				0.909318
				0.907396
				0.911866
				0.911494
				0.915321
				0.9164
				0.91959
				0.921993
				0.924565
				0.928152
				0.930133
				0.934762
				0.936182
				0.94171
				0.942604
				0.948895
				0.9493
				0.956224
				0.956176
				0.963611
				0.963147
				0.970982
				0.970137
				0.978268
				0.977078
				0.98541
				0.983908
				0.992353
				0.990575
				0.99905
				0.997028
				1.00546
				1.00323
				1.01154
				1.00913
				1.01726
				1.01471
				1.0226
				1.01994
				1.02752
				1.02478
				1.03201
				1.02923
				1.03604
				1.03325
				1.03961
				1.03683
				1.04269
				1.03997
				1.04527
				1.04264
				1.04735
				1.04483
				1.04891
				1.04655
				1.04995
				1.04778
				1.05048
				1.04852
				1.05048
				1.04877
				1.04996
				1.04852
				1.04891
				1.04778
				1.04735
				1.04655
				1.04527
				1.04483
				1.04269
				1.04264
				1.03961
				1.03997
				1.03605
				1.03684
				1.03201
				1.03325
				1.02753
				1.02923
				1.0226
				1.02479
				1.01727
				1.01994
				1.01154
				1.01472
				1.00546
				1.00914
				0.999055
				1.00323
				0.992359
				0.997034
				0.985417
				0.990581
				0.978276
				0.983915
				0.97099
				0.977085
				0.96362
				0.970145
				0.956233
				0.963155
				0.948905
				0.956185
				0.94172
				0.94931
				0.934772
				0.942615
				0.928164
				0.936192
				0.922005
				0.930144
				0.916413
				0.924577
				0.911508
				0.919603
				0.907409
				0.915334
				0.904228
				0.911879
				0.902057
				0.909331
				0.900967
				0.907768
				0.900994
				0.907237
				0.902136
				0.907756
				0.904356
				0.909308
				0.907583
				0.911842
				0.911723
				0.915284
				0.916663
				0.919536
				0.922283
				0.924493
				0.928463
				0.930041
				0.935082
				0.936068
				0.942032
				0.942466
				0.949209
				0.949133
				0.956519
				0.955975
				0.963876
				0.962908
				0.971206
				0.969854
				0.978438
				0.976742
				0.985513
				0.983512
				0.992376
				0.990107
				0.99898
				0.996481
				1.00528
				1.00259
				1.01125
				1.00839
				1.01684
				1.01387
				1.02205
				1.01898
				1.02684
				1.02372
				1.03121
				1.02806
				1.03515
				1.03202
				1.03866
				1.03557
				1.04174
				1.03873
				1.04439
				1.04146
				1.04657
				1.04373
				1.0482
				1.04544
				1.04928
				1.04669
				1.04991
				1.04775
				1.04247
				1.04433
				1.04172
				1.04407
				1.04076
				1.04337
				1.03953
				1.04223
				1.03783
				1.04057
				1.0357
				1.03851
				1.03321
				1.03608
				1.03039
				1.03329
				1.02722
				1.03014
				1.02372
				1.02661
				1.01989
				1.02273
				1.01573
				1.01849
				1.01127
				1.01391
				1.00652
				1.00902
				1.0015
				1.00384
				0.996245
				0.998386
				0.990789
				0.992701
				0.985169
				0.98682
				0.979429
				0.980785
				0.97362
				0.974647
				0.967796
				0.96846
				0.962023
				0.962287
				0.956369
				0.956198
				0.95091
				0.95027
				0.94573
				0.944587
				0.940916
				0.939239
				0.936559
				0.934322
				0.932749
				0.929934
				0.929574
				0.926173
				0.927115
				0.92313
				0.925437
				0.920886
				0.924589
				0.919506
				0.924595
				0.919029
				0.925456
				0.919472
				0.927148
				0.920819
				0.929622
				0.923033
				0.932813
				0.926048
				0.936642
				0.929787
				0.94102
				0.934158
				0.945857
				0.939064
				0.951063
				0.944409
				0.956551
				0.950096
				0.962237
				0.956036
				0.968048
				0.962145
				0.973912
				0.968347
				0.979768
				0.974571
				0.985559
				0.980756
				0.991235
				0.986845
				0.996752
				0.992789
				1.00207
				0.998545
				1.00716
				1.00407
				1.01198
				1.00934
				1.01652
				1.01431
				1.02074
				1.01897
				1.02463
				1.02328
				1.02818
				1.02724
				1.03136
				1.03082
				1.03417
				1.034
				1.0366
				1.03679
				1.03863
				1.03916
				1.04026
				1.04112
				1.04149
				1.04264
				1.04231
				1.04373
				1.04273
				1.04439
				1.04273
				1.04461
				1.04231
				1.04439
				1.04149
				1.04373
				1.04026
				1.04264
				1.03863
				1.04112
				1.0366
				1.03916
				1.03417
				1.03679
				1.03136
				1.03401
				1.02818
				1.03082
				1.02464
				1.02724
				1.02074
				1.02328
				1.01652
				1.01897
				1.01199
				1.01431
				1.00716
				1.00934
				1.00208
				1.00408
				0.996757
				0.99855
				0.991241
				0.992795
				0.985565
				0.986852
				0.979774
				0.980763
				0.973919
				0.974578
				0.968055
				0.968354
				0.962245
				0.962153
				0.956559
				0.956044
				0.951072
				0.950105
				0.945867
				0.944418
				0.94103
				0.939075
				0.936652
				0.934169
				0.932824
				0.929798
				0.929633
				0.92606
				0.927159
				0.923044
				0.925468
				0.920832
				0.924607
				0.919484
				0.924601
				0.919042
				0.925449
				0.919518
				0.927127
				0.920899
				0.929586
				0.923142
				0.93276
				0.926184
				0.936569
				0.929945
				0.940926
				0.934333
				0.94574
				0.939249
				0.95092
				0.944596
				0.956378
				0.950279
				0.962031
				0.956207
				0.967804
				0.962295
				0.973627
				0.968468
				0.979436
				0.974654
				0.985176
				0.980792
				0.990795
				0.986826
				0.996251
				0.992707
				1.0015
				0.998392
				1.00652
				1.00384
				1.01127
				1.00903
				1.01574
				1.01392
				1.01989
				1.01849
				1.02372
				1.02273
				1.02722
				1.02661
				1.03039
				1.03014
				1.03321
				1.0333
				1.0357
				1.03609
				1.03783
				1.03851
				1.03953
				1.04058
				1.04076
				1.04223
				1.04172
				1.04337
				1.04247
				1.04407
				1.03845
				1.03683
				1.0381
				1.03646
				1.03739
				1.03574
				1.03622
				1.03489
				1.03466
				1.0337
				1.0328
				1.0321
				1.03063
				1.03018
				1.02814
				1.02798
				1.02534
				1.02548
				1.02222
				1.0227
				1.01881
				1.01964
				1.01512
				1.0163
				1.01115
				1.0127
				1.00694
				1.00885
				1.00249
				1.00478
				0.997831
				1.00049
				0.992998
				0.996031
				0.988022
				0.991419
				0.982941
				0.986692
				0.977801
				0.981889
				0.972651
				0.977055
				0.967549
				0.972243
				0.962555
				0.967506
				0.957739
				0.962908
				0.953174
				0.958514
				0.948935
				0.954395
				0.945103
				0.950623
				0.941755
				0.947272
				0.938967
				0.944414
				0.936807
				0.942113
				0.93533
				0.940427
				0.934576
				0.9394
				0.934566
				0.939058
				0.935301
				0.939413
				0.93676
				0.940454
				0.938904
				0.942155
				0.941679
				0.944472
				0.945018
				0.947348
				0.948846
				0.950719
				0.953086
				0.954513
				0.957658
				0.958656
				0.962487
				0.963077
				0.9675
				0.967706
				0.972628
				0.972475
				0.97781
				0.977323
				0.982988
				0.982195
				0.988112
				0.987039
				0.993137
				0.991811
				0.998022
				0.996469
				1.00273
				1.00098
				1.00724
				1.00531
				1.01151
				1.00943
				1.01552
				1.01332
				1.01926
				1.01696
				1.0227
				1.02033
				1.02584
				1.02341
				1.02865
				1.0262
				1.03113
				1.02868
				1.03327
				1.03085
				1.03507
				1.03269
				1.03651
				1.03421
				1.03759
				1.0354
				1.03832
				1.03624
				1.03868
				1.03675
				1.03868
				1.03692
				1.03832
				1.03675
				1.0376
				1.03624
				1.03651
				1.0354
				1.03507
				1.03421
				1.03327
				1.0327
				1.03113
				1.03085
				1.02865
				1.02868
				1.02584
				1.0262
				1.0227
				1.02341
				1.01926
				1.02033
				1.01552
				1.01696
				1.01151
				1.01332
				1.00724
				1.00943
				1.00274
				1.00531
				0.998027
				1.00098
				0.993142
				0.996474
				0.988118
				0.991816
				0.982994
				0.987045
				0.977816
				0.982201
				0.972635
				0.977329
				0.967507
				0.972481
				0.962495
				0.967713
				0.957666
				0.963085
				0.953095
				0.958664
				0.948855
				0.954521
				0.945027
				0.950728
				0.941689
				0.947357
				0.938914
				0.944481
				0.93677
				0.942165
				0.935311
				0.940464
				0.934576
				0.939423
				0.934587
				0.939068
				0.935341
				0.93941
				0.936818
				0.940437
				0.938978
				0.942123
				0.941765
				0.944423
				0.945112
				0.947282
				0.948944
				0.950632
				0.953182
				0.954403
				0.957748
				0.958522
				0.962563
				0.962916
				0.967556
				0.967514
				0.972658
				0.97225
				0.977807
				0.977062
				0.982947
				0.981895
				0.988028
				0.986698
				0.993003
				0.991425
				0.997836
				0.996036
				1.00249
				1.0005
				1.00694
				1.00478
				1.01116
				1.00885
				1.01512
				1.0127
				1.01882
				1.0163
				1.02223
				1.01964
				1.02534
				1.0227
				1.02814
				1.02549
				1.03063
				1.02798
				1.0328
				1.03018
				1.03466
				1.0321
				1.03622
				1.0337
				1.03739
				1.03489
				1.0381
				1.03574
				1.03845
				1.03646
				1.03117
				1.03281
				1.0307
				1.0327
				1.03011
				1.03235
				1.02933
				1.03161
				1.0282
				1.03049
				1.02676
				1.0291
				1.02508
				1.02745
				1.02314
				1.02552
				1.02097
				1.02333
				1.01855
				1.02087
				1.0159
				1.01816
				1.01303
				1.01522
				1.00996
				1.01204
				1.00668
				1.00865
				1.00323
				1.00506
				0.999624
				1.00129
				0.99588
				0.997362
				0.992029
				0.993304
				0.988102
				0.989145
				0.984135
				0.984922
				0.980168
				0.980675
				0.976246
				0.976448
				0.972417
				0.972291
				0.968734
				0.968258
				0.965255
				0.964409
				0.962036
				0.960804
				0.959137
				0.957506
				0.956614
				0.95458
				0.954523
				0.952084
				0.95291
				0.950077
				0.951813
				0.948605
				0.951261
				0.947704
				0.951268
				0.947397
				0.951834
				0.947694
				0.952944
				0.948587
				0.954573
				0.950053
				0.956681
				0.952055
				0.959222
				0.954547
				0.962141
				0.957475