<VTKFile type="UnstructuredGrid" version="0.1" byte_order="LittleEndian">
<UnstructuredGrid>
	<Piece NumberOfPoints="839" NumberOfCells="1559">
		<CellData Scalars="density" Vectors="velocity">
			<DataArray type="Float64" Name="density" Format="ascii">
				1.62449
				0.647853
				0.741602
				0.99342
				1.28369
				0.529732
				1.72927
				0.539614
				1.2557
				0.719437
				0.963766
				0.76488
				1.31304
				1.02004
				1.62049
				0.551069
				0.696668
				1.34556
				1.22778
				1.56433
				0.947158
				0.570369
				0.789597
				0.672805
				1.04868
				1.38167
				1.51469
				0.594383
				0.647621
				1.4225
				1.46811
				0.62124
				1.19891
				0.918277
				0.815383
				1.07746
				1.16898
				0.892702
				0.841151
				1.10759
				1.13852
				0.866295
				1.14658
				1.6588
				0.531572
				1.28103
				1.64179
				0.743728
				0.721427
				0.539679
				1.30985
				1.58951
				0.551315
				1.08968
				0.698479
				1.34014
				1.54005
				0.998103
				0.570857
				0.674359
				1.25324
				1.37321
				1.49535
				0.595136
				0.975478
				0.767058
				0.648957
				1.41061
				1.45164
				0.622263
				1.02803
				1.59409
				1.22548
				0.950982
				0.791884
				1.05475
				1.61108
				1.19721
				0.92393
				0.818056
				1.08234
				0.540225
				1.16855
				0.897339
				0.844849
				1.11038
				1.61723
				1.62983
				1.1394
				0.871276
				0.734685
				0.555578
				1.31445
				1.57994
				0.57183
				0.712616
				1.34436
				1.11843
				1.28558
				1.53627
				0.591579
				0.689577
				1.37711
				1.49492
				0.614993
				0.665478
				0.756424
				1.41404
				1.45364
				0.640255
				0.875354
				1.00042
				1.60237
				1.25769
				0.779073
				0.979489
				1.03029
				0.555822
				1.22993
				0.803092
				0.955183
				1.59514
				1.60838
				1.0577
				0.571272
				0.736371
				1.10805
				1.34055
				1.57127
				1.31194
				1.20172
				1.55689
				0.828357
				0.930116
				0.591174
				1.08569
				0.713889
				1.1731
				1.37173
				0.854417
				0.904499
				1.11431
				1.5195
				0.758448
				0.614756
				1.14378
				0.880186
				0.690576
				1.40508
				1.47942
				0.6405
				0.666039
				1.44119
				0.831513
				1.58163
				1.58449
				1.28417
				0.78136
				1.07075
				0.56442
				1.01351
				1.03569
				1.59284
				0.587437
				1.09184
				1.34393
				0.748189
				1.59354
				1.55329
				1.25681
				0.608854
				0.805469
				0.982918
				0.726427
				1.37467
				1.06521
				1.51791
				0.631541
				0.703966
				1.57813
				1.40794
				1.47966
				0.655937
				0.680357
				1.44296
				1.22951
				0.830728
				0.961539
				1.0914
				1.3159
				1.20251
				0.856789
				0.934739
				1.02961
				0.640952
				1.11901
				1.17461
				0.883426
				0.909963
				1.14652
				0.7697
				1.57682
				1.0873
				1.55059
				0.58678
				1.58062
				1.56565
				1.55897
				0.608453
				1.28781
				1.36903
				1.53828
				0.749685
				0.631577
				1.57659
				1.56259
				0.791985
				0.727703
				1.39958
				1.50043
				0.656153
				1.01616
				0.704752
				1.4318
				1.46529
				0.680817
				1.03739
				1.34056
				1.2607
				1.08849
				0.771717
				0.815389
				0.986238
				0.629885
				1.06722
				1.23365
				0.839916
				0.966403
				1.09415
				1.07674
				0.858746
				1.56039
				1.20672
				0.865233
				0.940212
				1.12238
				0.599123
				1.1787
				1.31369
				0.891421
				0.917797
				1.15039
				1.55717
				1.56531
				1.54975
				0.624133
				0.794322
				1.55832
				1.53092
				0.647239
				1.37154
				0.739294
				1.40175
				1.49743
				0.670539
				0.717102
				1.43276
				1.5665
				1.46469
				0.694083
				0.760199
				1.07694
				1.28785
				1.053
				0.818013
				1.07404
				0.598138
				1.01939
				1.53477
				1.34382
				1.07005
				1.54167
				1.54517
				0.821159
				1.55438
				0.781482
				1.26115
				0.623446
				0.842701
				0.994542
				1.09974
				1.54587
				1.54486
				0.647049
				1.23518
				0.867955
				1.51204
				0.971856
				0.6707
				1.1267
				1.39389
				1.0369
				0.740158
				0.761624
				1.42267
				1.55099
				1.48191
				0.6944
				1.20828
				0.893796
				0.717708
				0.947668
				1.45207
				1.1545
				1.18107
				1.31712
				0.92082
				1.08319
				0.803721
				1.06525
				1.3664
				0.603898
				1.54063
				0.782549
				1.54274
				1.29116
				1.05439
				0.63531
				1.54217
				0.993523
				0.8269
				1.53865
				1.54198
				0.660761
				1.02221
				0.674066
				1.07203
				1.50782
				0.68385
				0.750229
				1.34121
				1.42395
				1.47971
				0.706431
				0.72884
				1.45188
				1.2648
				1.07681
				0.851184
				0.998329
				1.54377
				1.1026
				0.805314
				1.0606
				1.39649
				1.23896
				0.875786
				0.976397
				1.12983
				1.21216
				0.900795
				1.52175
				0.955098
				1.15805
				0.77101
				1.52787
				1.18499
				0.927568
				1.5316
				1.53259
				0.63372
				1.31708
				1.53064
				1.08158
				0.828411
				0.66001
				1.52955
				1.36977
				1.51517
				0.683641
				1.53747
				1.4917
				0.667194
				0.706645
				0.789211
				0.751015
				1.44095
				1.46653
				0.729208
				0.850237
				1.07076
				1.054
				1.05824
				1.41419
				1.29089
				1.08243
				0.853511
				0.771849
				1.53255
				1.03139
				1.52989
				1.52711
				1.09948
				1.34459
				1.53027
				1.26715
				0.878965
				0.812037
				0.639696
				1.00506
				1.13368
				1.06612
				1.24049
				1.3888
				1.52789
				0.904164
				0.985507
				1.16099
				0.670473
				1.21361
				0.930239
				0.95738
				1.18862
				1.51268
				0.790411
				0.695175
				1.0489
				1.06465
				1.52558
				1.48956
				1.32137
				0.71773
				1.44106
				1.46563
				0.739218
				0.761125
				1.52596
				0.832784
				0.640703
				0.822067
				1.51096
				1.52285
				1.52036
				1.36527
				1.51609
				1.52038
				1.5271
				1.01205
				0.813316
				1.06771
				1.29454
				1.08826
				1.41608
				0.858687
				0.668866
				1.07846
				0.779911
				1.03475
				1.10252
				1.04364
				0.694224
				1.51234
				1.05871
				1.51825
				1.34579
				1.27059
				1.49774
				0.886281
				1.01014
				0.717209
				1.13645
				1.47691
				1.51658
				0.739378
				0.835314
				1.45518
				0.761171
				1.24421
				0.910729
				0.991147
				1.16459
				1.38884
				1.21786
				0.936081
				0.962703
				1.19236
				1.51866
				0.6399
				1.52052
				1.52222
				1.51552
				0.802851
				0.977747
				1.51923
				1.42988
				1.31956
				0.708868
				0.780838
				0.860604
				1.07324
				1.51603
				0.675109
				1.03786
				1.37179
				1.05284
				0.70252
				0.814668
				1.50599
				1.10631
				1.49493
				0.726252
				1.0787
				1.2974
				1.51568
				1.47415
				0.748625
				1.40585
				0.888348
				1.51372
				1.51266
				1.5112
				1.5022
				1.50972
				1.45455
				1.50642
				0.803883
				1.04354
				1.07431
				1.13049
				1.51052
				1.34619
				0.768065
				1.2717
				0.672251
				1.51192
				0.915101
				1.0214
				1.16817
				0.847088
				1.24471
				0.940978
				0.992758
				1.19414
				1.03325
				0.865244
				1.22204
				0.966363
				1.06593
				0.703125
				1.04705
				1.51159
				0.700839
				1.42596
				1.32959
				1.37417
				0.724581
				1.4986
				1.48371
				0.863457
				0.793943
				0.7478
				1.5089
				0.843293
				1.46675
				1.51163
				1.50602
				1.5026
				1.50655
				0.768191
				1.05987
				1.5088
				1.11132
				1.07856
				1.30181
				0.672941
				1.02606
				1.40813
				0.893062
				1.05803
				1.50859
				1.03953
				1.0582
				0.804857
				1.1336
				1.44217
				1.27602
				0.706595
				0.841531
				0.918194
				1.02584
				1.17107
				0.678465
				0.79443
				1.50251
				1.24865
				0.944465
				0.996833
				1.1974
				0.728101
				1.22631
				0.972529
				1.49072
				1.50354
				1.47701
				0.754567
				1.01757
				1.50339
				1.33456
				1.49504
				1.5014
				1.49852
				0.88609
				1.50036
				1.06795
				1.49628
				1.50422
				1.37212
				1.02197
				1.03473
				1.46048
				1.05178
				0.846728
				0.703753
				1.4089
				0.778334
				1.10312
				1.50002
				0.839008
				1.13949
				0.727728
				1.30448
				1.50229
				0.987849
				1.50064
				0.676647
				1.07252
				0.922102
				0.748675
				0.75229
				1.50137
				1.49822
				1.47525
				1.49792
				1.44288
				1.16261
				1.06065
				1.49887
				1.01431
				1.27364
				0.948981
				1.02935
				0.793283
				1.20031
				1.48886
				1.02672
				1.25417
				1.04335
				0.978434
				1.00177
				1.22856
				0.777632
				1.4963
				1.33297
				0.890337
				0.70801
				1.49699
				1.49769
				1.49645
				0.739262
				1.06083
				1.36705
				1.49516
				1.49434
				1.48915
				0.910952
				1.49201
				1.10751
				0.884742
				1.01066
				0.751379
				0.703354
				1.0225
				1.49096
				1.40879
				1.05357
				1.49245
				0.740574
				1.44316
				1.30315
				1.14408
				1.03835
				1.4716
				0.933442
				0.839902
				0.815643
				1.48427
				1.16876
				1.49408
				1.28162
				0.95373
				1.02899
				1.20583
				1.25504
				0.983556
				1.01329
				1.24128
				0.736759
				1.49528
				1.49591
				1.4937
				0.790911
				1.0499
				1.49176
				1.49427
				1.00265
				1.49
				1.32839
				1.04526
				1.01423
				1.4197
				1.02966
				0.886304
				0.934823
				1.4717
				0.781234
				0.704497
				0.840474
				1.48722
				1.49083
				0.725085
				1.13885
				1.12083
				1.36747
				1.07345
				1.47873
				0.887618
				1.49185
				1.03082
				1.48999
				1.49004
				0.738066
				1.18071
				1.48772
				1.0593
				1.39749
				1.0521
				1.28678
				1.48861
				1.48425
				1.48843
				0.999153
				1.44009
				1.48669
				1.01041
				0.9781
				1.45988
				0.881639
				1.21872
				0.815605
				1.02541
				1.03998
				0.702605
				1.02333
				1.48687
				1.24765
				0.815089
				0.735022
				1.48067
				1.48517
				1.32881
				0.722264
				1.00647
				0.936577
				1.48931
				0.782193
				1.49009
				1.46668
				1.48808
				1.4178
				0.990671
				1.47431
				1.046
				1.48649
				1.12242
				1.48737
				1.00184
				1.1418
				1.48554
				0.858422
				0.775272
				1.03253
				1.01676
				1.36331
				0.831762
				1.18193
				1.06185
				1.28645
				0.927099
				0.715579
				1.48118
				0.981526
				1.39985
				1.02343
				1.43519
				0.732417
				0.947905
				0.803085
				1.48596
				1.45749
				0.882502
				1.04789
				1.47648
				1.48467
				1.48356
				1.48531
				0.986979
				0.998068
				0.713652
				1.22737
				1.48408
				1.4802
				1.03949
				1.48227
				1.48221
				1.01247
				1.24772
				1.02674
				1.32431
				1.48046
				1.4683
				0.976316
				1.15392
				0.859085
				0.817971
				1.11342
				1.16998
				1.47817
				1.48502
				1.48457
				0.976864
				0.773646
				0.75779
				1.0394
				1.36302
				1.48369
				1.48362
				0.925839
				0.829707
				1.21287
				0.987798
				1.07146
				0.747761
				1.03051
				0.929591
				0.711363
				1.48206
				1.47181
				1.00194
				1.40012
				1.2867
				1.47897
				1.48122
				1.455
				1.01691
				1.43197
				1.02373
				0.910273
				1.47818
				1.02792
				1.24948
				0.972789
				1.48226
				1.48242
				0.984052
				1.32586
				1.03559
				1.46349
				1.48165
				1.47976
				1.15985
				1.47358
				0.998004
				0.97926
				1.47999
				1.47701
				1.02399
				1.01159
				1.47856
				0.878901
				1.47739
				1.12253
				0.844923
				1.17527
				0.741592
				0.817311
				0.742456
				1.46816
				1.47737
				0.754169
				1.07327
				0.804092
				1.35764
				1.21942
				1.02579
				0.868585
				1.28769
				1.00503
				0.961615
				0.96578
				1.39863
				1.48139
				1.47404
				1.48121
				1.48089
				1.45076
				0.972511
				1.42985
				1.02454
				0.912019
				1.24964
				1.47963
				1.47919
				0.986099
				1.0127
				0.999765
				1.47844
				1.47072
				1.47619
				0.826428
				1.18338
				1.46004
				0.740851
				1.32143
				1.47377
				0.739738
				1.01796
				0.954518
				1.12952
				0.956803
				1.40816
				1.02599
				0.968371
				1.47798
				1.478
				1.4796
				0.982424
				1.46474
				0.785528
				1.01786
				1.47767
				0.851624
				1.47589
				1.47192
				0.995607
				0.866601
				1.23734
				1.00716
				1.0707
				1.47677
				1.47456
				1.47574
				1.35712
				0.801802
				1.28242
				1.47313
				0.96821
				1.44644
				1.46724
				0.925264
				1.38574
				0.944532
				0.92962
				0.778246
				1.42606
				0.956198
				0.735073
				1.01266
				1.47215
				0.767327
				1.47768
				1.47727
				0.969846
				1.00532
				1.45599
				1.47647
				1.18294
				0.98277
				0.994356
				1.47498
				1.32132
				1.47565
				1.02097
				1.12844
				1.46865
				1.4615
				1.40783
				0.96941
				1.47191
				1.07165
				1.23934
				0.93917
				1.0024
				0.851774
				0.782126
				0.950817
				0.903292
				1.28246
				0.965853
				1.00825
				1.46459
				1.47529
				1.35306
				1.47435
				0.83361
				0.863508
				0.979856
				0.766573
				1.00943
				0.999588
				1.47493
				0.75308
				1.46931
				0.990376
				1.44352
				1.47219
				0.920728
				1.47437
				1.4727
				1.38699
				1.47359
				1.42118
				0.762881
				1.17436
				1.46653
				0.924128
				1.45353
				1.22404
				0.981784
				0.936372
				1.31553
				1.46943
				0.951842
				1.47461
				1.05885
				0.995785
				1.11842
				1.47454
				1.47337
				0.964735
				0.986276
				0.976063
				1.45881
				1.47411
				1.47122
				0.842509
				0.982307
				1.47354
				0.81288
				1.46774
				0.752835
				1.2735
				0.745823
				0.882791
				0.903163
				1.46211
				1.35239
				0.917865
				0.83195
				0.930743
				1.44088
				1.0132
				0.943575
				1.38602
				0.995294
				0.944417
				1.46429
				0.960973
				1.41757
				1.47261
				0.961445
				0.98944
				1.47302
				1.47115
				0.972696
				1.4683
				0.981599
				1.17741
				0.791932
				1.47291
				1.45062
				1.46924
				1.47256
				1.47128
				1.22841
				1.31502
				1.47193
				1.06288
				1.1211
				0.90891
				0.791632
				1.4657
				0.743479
				1.45584
				0.921559
				0.920829
				1.27467
				0.939379
				0.981468
				1.47258
				0.946367
				1.47196
				1.4262
				0.976416
				0.809362
				1.45961
				0.770963
				0.9569
				1.47259
				0.967367
				1.47047
				0.88286
				1.34706
				0.937844
				1.0395
				1.4723
				0.861079
				1.46235
				1.43988
				1.46658
				0.96419
				1.4684
				1.47194
				1.38213
				0.905467
				0.915895
				1.21559
				1.40638
				0.973768
				0.930838
				0.864106
				1.16172
				1.44811
				0.785058
				1.46423
				0.778218
				0.978128
				0.757051
				0.952034
				1.47121
				1.47027
				1.30765
				1.10375
				1.26432
				0.970919
				1.47148
				0.962878
				1.46896
				1.45373
				1.47141
				1.47119
				1.47012
				1.46704
				1.47065
				0.888029
				1.46547
				0.836678
				0.899716
				1.45783
				1.4251
				0.762458
				0.950745
				0.915787
				0.939203
				1.34511
				1.04258
				0.913347
				1.4375
				1.46087
				0.960767
				0.98328
				0.932733
				1.47076
				0.857607
				1.47118
				1.4698
				0.953324
				0.839915
				0.944044
				1.46306
				0.760277
				1.47116
				1.21821
				1.46834
				1.37538
				1.4709
				1.44527
				1.16512
				0.812017
				0.880641
				1.47076
				1.10789
				1.40489
				1.30731
				0.894748
				1.4662
				0.748982
				1.26557
				0.909361
				0.919134
				1.4511
				0.960526
				0.926372
				1.46456
				0.955892
				1.46973
				1.03397
				0.938753
				1.47027
				1.4687
				0.948315
				1.45563
				0.862329
				1.47036
				0.832284
				1.42124
				1.46733
				0.790904
				1.47022
				0.793369
				1.45909
				1.43507
				0.745679
				1.33823
				0.960822
				1.47019
				1.46458
				0.911351
				1.09281
				1.46885
				1.46168
				0.873775
				1.46547
				0.894574
				0.884638
				0.983924
				0.889452
				1.19991
				0.94192
				1.25287
				0.905802
				0.863639
				1.37301
				1.44337
				0.937565
				1.1473
				1.46982
				1.46928
				0.919261
				1.46354
				0.804297
				0.92943
				1.4702
				1.46823
				1.29783
				0.771662
				1.47006
				1.39851
				1.44966
				1.46677
				1.4698
				1.46024
				1.46941
				0.881015
				0.774129
				0.84806
				1.0345
				0.935174
				1.45445
				0.898675
				1.46477
				0.854247
				0.939695
				0.854753
				0.91219
				1.45823
				1.43244
				1.41919
				0.783958
				1.46868
				1.33659
				1.46868
				0.932684
				1.0977
				0.923439
				1.46108
				0.754752
				1.46947
				0.933606
				0.960367
				1.4675
				0.878394
				1.46929
				1.20244
				1.46308
				1.01118
				1.25403
				1.46882
				1.4662
				1.44106
				1.15097
				1.46397
				1.29808
				0.823466
				1.45957
				0.848268
				1.36657
				0.837068
				0.888199
				0.86608
				0.757762
				1.44764
				0.897758
				0.755255
				0.802311
				0.87633
				1.39605
				1.46442
				0.890586
				0.883834
				1.46834
				1.46921
				1.45273
				1.07031
				0.837408
				1.46704
				1.46021
				1.46849
				1.45677
				1.46346
				1.46571
				1.45992
				0.815432
				1.43118
				0.862438
				1.41611
				1.46216
				1.32816
				1.13332
				0.852852
				0.740726
				0.896227
				1.23323
				0.898513
				0.869834
				0.929062
				1.01397
				0.984942
				0.833134
				1.18264
				0.892011
				0.876166
				1.43986
				1.28537
				0.884162
				1.4675
				1.46831
				0.762938
				1.46379
				1.36413
				1.4666
				1.46399
				1.44676
				0.785746
				1.46549
				0.719612
				0.841356
				1.39178
				1.45203
				1.07403
				0.878168
				0.84732
				1.46017
				0.868494
				1.45654
				0.839102
				0.849771
				0.861681
				1.46782
				1.45996
				1.42899
				1.467
				1.46223
				1.13684
				1.3262
				1.46437
				0.801279
				1.41564
				1.23522
				1.4661
				0.760466
				1.18518
				0.745198
				1.46385
				0.866487
				1.28471
				0.889842
				0.950675
				1.43838
				1.04634
				0.98465
				0.807619
				1.46501
				0.872941
				0.842505
				0.86893
				1.44531
				1.35814
				0.86257
				0.84914
				1.46687
				0.771932
				1.4664
				0.723314
				1.45071
				1.45915
				1.38993
				1.1022
				1.46624
				1.45533
				1.45894
				1.46151
				1.46358
				0.849378
				1.46509
				1.42916
				0.779917
				1.16615
				0.831173
				1.21234
				1.31452
				1.41309
				0.853877
				1.2583
				0.726629
				0.846784
				0.724725
				1.46224
				1.05074
				1.46617
				1.43723
				0.850431
				0.94208
				1.00933
				0.912606
				1.46583
				0.83988
				1.44471
				1.35561
				0.832588
				0.79889
				1.45041
				1.46495
				0.847157
				0.709307
				1.45645
				1.10568
				0.753116
				1.45589
				1.46387
				0.841335
				1.3865
				1.45988
				1.46226
				1.46099
				1.42584
				1.16808
				1.31343
				1.21341
				1.46141
				0.816073
				1.2637
				1.41523
				0.821173
				0.746868
				0.704438
				1.4347
				1.45852
				1.07796
				1.46489
				0.871783
				1.00541
				0.957428
				1.44331
				0.898314
				1.44979
				1.35022
				0.763011
				0.744982
				1.45449
				0.724376
				1.46326
				1.45901
				1.13295
				1.46172
				0.845771
				0.798819
				0.84177
				1.46184
				1.38466
				1.19668
				1.30788
				1.26245
				1.4644
				1.43392
				0.839213
				1.41225
				0.695809
				0.730079
				1.07963
				0.836554
				0.853266
				1.44388
				1.4555
				1.00396
				0.935949
				0.916367
				1.34744
				1.44917
				0.778667
				0.851661
				1.13001
				0.714858
				1.46141
				1.19631
				1.46091
				1.45476
				1.30411
				1.26073
				0.840224
				1.45684
				1.46384
				1.4319
				0.695965
				1.04742
				1.3839
				0.800042
				1.44303
				1.11498
				1.4156
				1.34045
				1.20581
				0.716455
				0.796206
				0.949448
				0.7602
				0.881902
				1.2822
				1.43583
				1.44898
			</DataArray>
			<DataArray type="Float64" Name="mach-number" Format="ascii">
				0.469952
				1.35267
				1.44659
				1.15389
				0.853662
				1.74127
				0.449274
				1.72564
				0.881343
				1.47453
				1.18715
				1.41778
				0.824924
				1.12412
				0.533088
				1.70846
				1.50387
				0.793953
				0.909215
				0.587257
				1.20576
				1.67956
				1.38773
				1.53533
				1.09276
				0.759934
				0.634559
				1.64438
				1.56942
				0.721811
				0.679315
				1.6061
				0.938036
				1.23849
				1.35691
				1.06189
				0.967751
				1.2675
				1.32669
				1.03033
				0.99853
				1.29775
				0.686566
				0.431254
				1.7352
				0.861567
				0.505576
				1.44264
				1.47067
				1.72465
				0.834065
				0.561725
				1.70641
				0.770419
				1.50011
				0.804904
				0.611354
				1.14904
				1.67686
				1.53181
				0.888466
				0.773347
				0.656341
				1.64132
				1.17404
				1.41386
				1.566
				0.738316
				0.699267
				1.60281
				1.11625
				0.519862
				0.915757
				1.20139
				1.38379
				1.08799
				0.497931
				0.943656
				1.23157
				1.35263
				1.05937
				1.73336
				0.972151
				1.26147
				1.32127
				1.03068
				0.499113
				0.485092
				1.00136
				1.2909
				1.46213
				1.7138
				0.829349
				0.552637
				1.68966
				1.49074
				0.799574
				0.760075
				0.85751
				0.602423
				1.66013
				1.52159
				0.767166
				0.648664
				1.62566
				1.55444
				1.43454
				0.73113
				0.691565
				1.58925
				0.967382
				1.14992
				0.513599
				0.884904
				1.4063
				1.17307
				1.11736
				1.71114
				0.912503
				1.37686
				1.20003
				0.529363
				0.500591
				1.0881
				1.68899
				1.45864
				0.787642
				0.808394
				0.551989
				0.836789
				0.940594
				0.57926
				1.34641
				1.22835
				1.65877
				1.05875
				1.4877
				0.969415
				0.777893
				1.31552
				1.25745
				1.02912
				0.624765
				1.43069
				1.62408
				0.999092
				1.28546
				1.51857
				0.744932
				0.66842
				1.58733
				1.55183
				0.708466
				1.09931
				0.537742
				0.531771
				0.863604
				1.40221
				0.819383
				1.70701
				1.13563
				1.1121
				0.540298
				1.671
				0.808684
				0.800928
				1.44854
				0.53
				0.579547
				0.89018
				1.63935
				1.37278
				1.16911
				1.47681
				0.770059
				1.08166
				0.622146
				1.60647
				1.50715
				0.54405
				0.736711
				0.662763
				1.57227
				1.53898
				0.700913
				0.916947
				1.34247
				1.19259
				1.05501
				0.829352
				0.943803
				1.31171
				1.22241
				0.89972
				1.47703
				1.02716
				0.971558
				1.28072
				1.25026
				0.999563
				1.42115
				0.546311
				0.824196
				0.576585
				1.67132
				0.536307
				0.565291
				0.56533
				1.63861
				0.856801
				0.780191
				0.60153
				1.44548
				1.60485
				0.541227
				0.558903
				1.39328
				1.47385
				0.74927
				0.642447
				1.57008
				1.13566
				1.50399
				0.715987
				0.680408
				1.53612
				1.1128
				0.808704
				0.884076
				0.84082
				1.4175
				1.36458
				1.16812
				1.56226
				1.0816
				0.911093
				1.33507
				1.18974
				1.0535
				0.837928
				1.0995
				0.560003
				0.938449
				1.30508
				1.21892
				1.02431
				1.65633
				0.966857
				0.835499
				1.27454
				1.24423
				0.995547
				0.56917
				0.563193
				0.57015
				1.61974
				1.38931
				0.567643
				0.604666
				1.58666
				0.77246
				1.4631
				0.741893
				0.640886
				1.55443
				1.4921
				0.709632
				0.558882
				0.675941
				1.52266
				1.43601
				0.874064
				0.861834
				1.09627
				1.3603
				0.850338
				1.65757
				1.13166
				0.595328
				0.800648
				1.0798
				0.586776
				0.580923
				1.21566
				0.57386
				1.4087
				0.888047
				1.61991
				1.33066
				1.15836
				1.04969
				0.578728
				0.589323
				1.58564
				0.913739
				1.30091
				0.624796
				1.18294
				1.55242
				1.02235
				0.75335
				0.934951
				1.45995
				1.43258
				0.723269
				0.57159
				0.658754
				1.52013
				0.940565
				1.27092
				1.48913
				1.20971
				0.691611
				0.994389
				0.967701
				0.827078
				1.24
				0.867674
				1.38114
				0.862433
				0.781509
				1.6512
				0.589046
				1.40667
				0.585924
				0.854099
				1.09553
				1.60482
				0.587119
				1.00965
				1.35249
				0.598286
				0.582757
				1.5685
				1.12913
				1.46787
				1.07801
				0.628697
				1.53652
				1.44896
				0.807061
				0.718925
				0.659077
				1.50643
				1.47676
				0.689016
				0.880373
				0.885681
				1.32309
				1.15578
				0.589783
				1.04673
				1.37824
				0.875055
				0.747563
				0.906994
				1.29402
				1.17951
				1.01851
				0.934445
				1.26498
				0.610134
				1.20327
				0.989629
				1.42154
				0.603236
				0.961871
				1.23436
				0.598135
				0.595234
				1.60686
				0.832108
				0.596087
				0.913014
				1.35023
				1.56876
				0.596661
				0.774196
				0.618137
				1.53559
				0.594611
				0.646008
				1.52104
				1.50422
				1.40034
				1.44583
				0.702899
				0.67445
				1.47429
				1.17294
				0.890641
				0.884568
				1.08988
				0.731372
				0.858389
				1.06804
				1.31972
				1.41934
				0.594026
				1.11921
				0.601284
				0.604681
				1.05196
				0.79854
				0.600624
				0.883047
				1.28945
				1.37046
				1.59928
				1.14734
				1.01705
				0.944498
				0.909631
				0.757731
				0.604611
				1.26029
				1.16886
				0.989294
				1.55564
				0.936163
				1.2306
				1.20016
				0.961511
				0.626279
				1.3955
				1.52153
				0.896851
				0.906633
				0.611375
				0.650384
				0.824228
				1.49121
				0.70255
				0.675489
				1.46354
				1.43498
				0.602069
				1.34721
				1.59612
				1.26392
				0.622493
				0.608283
				0.612012
				0.781438
				0.616726
				0.608334
				0.608439
				1.0093
				1.36873
				1.08247
				0.849775
				1.06067
				0.728746
				1.31545
				1.55759
				0.928473
				1.41219
				1.11854
				1.04748
				0.904754
				1.52219
				0.621765
				0.910949
				0.611762
				0.803581
				0.875711
				0.640991
				1.28329
				1.14273
				1.49097
				1.01284
				0.664062
				0.613144
				1.46162
				1.34123
				0.688759
				1.43365
				0.903239
				1.25494
				1.16428
				0.983861
				0.757561
				0.929266
				1.22588
				1.19621
				0.955756
				0.613849
				1.59926
				0.611963
				0.612719
				0.617459
				1.38228
				1.07073
				0.614636
				0.715111
				0.828687
				1.44152
				1.40821
				1.3129
				0.942892
				0.613683
				1.54942
				0.917422
				0.77118
				0.926558
				1.51195
				1.36588
				0.630124
				1.04589
				0.645547
				1.48007
				1.07209
				0.852705
				0.619401
				0.665914
				1.4512
				0.741018
				1.28026
				0.620432
				0.624884
				0.618597
				0.632521
				0.623878
				0.689643
				0.627836
				1.38085
				1.10574
				0.964656
				1.02115
				0.621015
				0.80292
				1.42795
				0.879231
				1.5537
				0.618639
				1.24944
				1.13075
				0.98307
				1.32844
				0.905889
				1.21994
				1.16251
				0.956702
				0.924568
				1.19612
				0.928852
				1.19137
				0.947261
				1.47814
				0.930676
				0.625653
				1.51351
				0.719905
				0.816836
				0.779535
				1.48185
				0.639952
				0.656912
				1.30705
				1.39581
				1.4511
				0.624682
				1.33531
				0.677431
				0.623728
				0.628469
				0.630418
				0.624995
				1.42526
				0.991684
				0.626512
				1.03877
				1.07091
				0.846381
				1.5509
				0.938225
				0.733786
				1.27546
				0.963131
				0.62813
				0.947311
				1.09282
				1.38071
				1.01437
				0.7036
				0.873433
				1.504
				1.26715
				1.24734
				1.13078
				0.976716
				1.53826
				1.3949
				0.630018
				0.898161
				1.21796
				1.1621
				0.949867
				1.47627
				0.92171
				1.18657
				0.648721
				0.630597
				0.656912
				1.44003
				1.04019
				0.62936
				0.820901
				0.640667
				0.633504
				0.636835
				1.28585
				0.631664
				0.980358
				0.641996
				0.632282
				0.774495
				0.944605
				0.950216
				0.684005
				0.965925
				1.33269
				1.50768
				0.744696
				1.41013
				1.04999
				0.632567
				1.34467
				1.01199
				1.47427
				0.849211
				0.63278
				1.08801
				0.634558
				1.54392
				1.08081
				1.24092
				1.40037
				1.44313
				0.633788
				0.637296
				0.668847
				0.640931
				0.696843
				0.986523
				0.993631
				0.637507
				0.958449
				0.876546
				1.21243
				1.12681
				1.3893
				0.949695
				0.645838
				0.967155
				0.897661
				0.982176
				1.17984
				1.15377
				0.921508
				1.40882
				0.636745
				0.813736
				1.28109
				1.50318
				0.641065
				0.637108
				0.639081
				1.46159
				1.00645
				0.785704
				0.638316
				0.641496
				0.647321
				1.16646
				0.644199
				1.04446
				1.28984
				0.964139
				1.4445
				1.5109
				0.96929
				0.643548
				0.738575
				0.998254
				0.641812
				1.42532
				0.706279
				0.846064
				1.00768
				0.983925
				0.671048
				1.23141
				1.34086
				1.37011
				0.657221
				0.980035
				0.643555
				0.864583
				1.2072
				1.12548
				0.944608
				0.894738
				1.17634
				1.14319
				0.907717
				1.4648
				0.640415
				0.63995
				0.642227
				1.39701
				1.02675
				0.644606
				0.642721
				0.978185
				0.644477
				0.823916
				1.01247
				0.986354
				0.726025
				1.00042
				1.22477
				1.23128
				0.666747
				1.4132
				1.50932
				1.33508
				0.652657
				0.646903
				1.47169
				1.015
				1.03334
				0.778547
				1.08051
				0.657396
				1.28348
				0.644561
				1.04922
				0.643861
				0.646177
				1.46332
				0.973707
				0.647063
				1.09796
				0.753467
				1.02311
				0.868323
				0.648012
				0.652769
				0.646469
				0.983476
				0.699892
				0.650179
				0.988062
				1.18634
				0.685235
				1.29192
				0.933163
				1.36521
				1.00157
				1.01508
				1.50906
				1.13395
				0.652236
				0.905479
				1.31978
				1.46895
				0.65513
				0.650076
				0.819619
				1.47844
				1.09104
				1.22934
				0.646919
				1.40994
				0.647424
				0.674656
				0.648706
				0.729981
				0.998085
				0.66707
				1.03453
				0.650526
				1.02913
				0.650371
				1.00548
				1.00748
				0.653105
				1.31762
				1.42016
				1.02898
				1.01827
				0.79035
				1.35039
				0.968421
				1.09159
				0.861358
				1.24289
				1.4904
				0.654729
				1.17879
				0.743898
				1.13362
				0.712493
				1.46566
				1.15251
				1.35515
				0.650417
				0.681216
				1.28546
				1.04517
				0.663985
				0.650662
				0.654846
				0.651711
				1.00341
				1.00725
				1.49264
				0.925478
				0.653208
				0.657315
				1.04012
				0.653281
				0.655155
				1.01957
				0.899938
				1.03222
				0.83003
				0.655618
				0.669574
				1.18793
				0.99863
				1.31286
				1.37051
				1.03787
				0.981667
				0.66172
				0.652145
				0.652519
				1.01981
				1.41671
				1.44266
				1.06157
				0.78506
				0.653942
				0.653753
				1.1978
				1.34921
				0.941616
				1.02633