<VTKFile type="UnstructuredGrid" version="0.1" byte_order="LittleEndian">
<UnstructuredGrid>
	<Piece NumberOfPoints="839" NumberOfCells="1559">
		<CellData Scalars="density" Vectors="velocity">
			<DataArray type="Float64" Name="density" Format="ascii">
				1.60802
				0.70269
				0.708674
				0.953942
				1.24139
				0.502432
				1.64035
				0.514729
				1.21376
				0.686966
				0.931088
				0.731808
				1.26961
				0.985946
				1.5423
				0.525773
				0.664661
				1.30004
				1.18589
				1.49865
				0.906343
				0.543736
				0.756962
				0.641416
				1.01288
				1.333
				1.45431
				0.566598
				0.617029
				1.36981
				1.41097
				0.591928
				1.15669
				0.880409
				0.782486
				1.0394
				1.1271
				0.856625
				0.805959
				1.0688
				1.09904
				0.830033
				1.25205
				1.6225
				0.513379
				1.23509
				1.56593
				0.708316
				0.686792
				0.513779
				1.26279
				1.52342
				0.525547
				1.16193
				0.664665
				1.29198
				1.47786
				0.952931
				0.543448
				0.641404
				1.20745
				1.32342
				1.43612
				0.565914
				0.929493
				0.730889
				0.617023
				1.3578
				1.39559
				0.591588
				0.980116
				1.56599
				1.17955
				0.904268
				0.755223
				1.00975
				1.58221
				1.15044
				0.879634
				0.780705
				1.03555
				0.51287
				1.12196
				0.854611
				0.805485
				1.06299
				1.56171
				1.57797
				1.09307
				0.829468
				0.705706
				0.528599
				1.2739
				1.52253
				0.544399
				0.684212
				1.30258
				1.06222
				1.2462
				1.48107
				0.564575
				0.661973
				1.33373
				1.44213
				0.588588
				0.638736
				0.727477
				1.3674
				1.4038
				0.614086
				0.952133
				0.969646
				1.56459
				1.21927
				0.750292
				0.945614
				0.995711
				0.531035
				1.19192
				0.774161
				0.921539
				1.53852
				1.56614
				1.02465
				0.542745
				0.703079
				1.05757
				1.29319
				1.53868
				1.26573
				1.16364
				1.49903
				0.799024
				0.897694
				0.562344
				1.05153
				0.681642
				1.13597
				1.32309
				0.824451
				0.872708
				1.07887
				1.46293
				0.724369
				0.585899
				1.10799
				0.84888
				0.659449
				1.35488
				1.42545
				0.611189
				0.635877
				1.38891
				0.91934
				1.54876
				1.55016
				1.23809
				0.746961
				1.05676
				0.531457
				0.964871
				0.992184
				1.53622
				0.558687
				1.04724
				1.30212
				0.719799
				1.54803
				1.49956
				1.21174
				0.581936
				0.770571
				0.941376
				0.698671
				1.33118
				1.01658
				1.46386
				0.605719
				0.677171
				1.54263
				1.36192
				1.42907
				0.630297
				0.654225
				1.39484
				1.18391
				0.794569
				0.918323
				1.04613
				1.27516
				1.15635
				0.81916
				0.892749
				1.05257
				0.638394
				1.07283
				1.12922
				0.845033
				0.86981
				1.10055
				0.741199
				1.53723
				1.04712
				1.51705
				0.558251
				1.53673
				1.51338
				1.52571
				0.579292
				1.24819
				1.3208
				1.48413
				0.717343
				0.603159
				1.53776
				1.52929
				0.764107
				0.696325
				1.34983
				1.44641
				0.627434
				0.980115
				0.674287
				1.3812
				1.41321
				0.651256
				1.00708
				1.29305
				1.22249
				1.06218
				0.738568
				0.787719
				0.956982
				0.625334
				1.02992
				1.19519
				0.811232
				0.934983
				1.05963
				1.03659
				0.892806
				1.52577
				1.16859
				0.835647
				0.909676
				1.08746
				0.57359
				1.14172
				1.26663
				0.862343
				0.887393
				1.11437
				1.52137
				1.51646
				1.50554
				0.599146
				0.760784
				1.52151
				1.47861
				0.622106
				1.32661
				0.712695
				1.35574
				1.44596
				0.645401
				0.69091
				1.38504
				1.52336
				1.41511
				0.668498
				0.733239
				1.06862
				1.24046
				1.00197
				0.784165
				1.03325
				0.564289
				0.975392
				1.49985
				1.30205
				1.02676
				1.50717
				1.51098
				0.858047
				1.51362
				0.754312
				1.2147
				0.594213
				0.807679
				0.954231
				1.04975
				1.51097
				1.49498
				0.619185
				1.18754
				0.831164
				1.4584
				0.930047
				0.64236
				1.08092
				1.34496
				1.08289
				0.709599
				0.730966
				1.37274
				1.51165
				1.43085
				0.665191
				1.16191
				0.856396
				0.687748
				0.906997
				1.40126
				1.10755
				1.134
				1.27466
				0.883117
				1.05256
				0.776434
				1.02475
				1.31625
				0.56732
				1.50423
				0.751793
				1.50598
				1.25087
				1.01437
				0.613897
				1.50352
				1.03662
				0.799791
				1.48857
				1.50517
				0.637651
				0.989928
				0.629411
				1.03821
				1.4569
				0.659614
				0.724462
				1.29454
				1.37522
				1.43102
				0.681586
				0.70352
				1.40443
				1.22495
				1.05851
				0.823788
				0.969738
				1.4986
				1.06229
				0.773507
				1.01889
				1.35125
				1.1987
				0.847761
				0.94629
				1.09319
				1.17359
				0.87231
				1.48636
				0.924287
				1.12099
				0.745203
				1.49228
				1.14628
				0.899285
				1.49633
				1.49731
				0.607816
				1.26604
				1.49541
				1.07199
				0.795969
				0.6338
				1.48772
				1.32416
				1.46556
				0.656944
				1.49628
				1.44302
				0.622161
				0.678577
				0.764822
				0.721505
				1.39213
				1.41766
				0.700202
				0.84843
				1.03938
				1.01482
				1.0077
				1.36302
				1.24454
				1.03372
				0.819479
				0.741807
				1.49485
				0.987834
				1.49262
				1.49039
				1.05704
				1.30416
				1.49222
				1.21716
				0.843484
				0.786414
				0.618682
				0.96534
				1.08245
				1.07043
				1.19243
				1.34258
				1.4886
				0.868143
				0.944425
				1.11602
				0.651736
				1.16676
				0.893042
				0.91933
				1.13921
				1.4631
				0.761662
				0.673886
				1.00874
				1.04383
				1.47901
				1.4422
				1.27624
				0.694203
				1.39517
				1.41645
				0.71467
				0.735673
				1.48925
				0.809722
				0.619583
				0.860322
				1.47522
				1.48747
				1.4845
				1.31657
				1.48023
				1.48559
				1.4827
				1.05506
				0.782352
				1.02702
				1.25588
				1.03983
				1.36793
				0.832702
				0.644386
				1.06229
				0.756711
				1.00465
				1.07015
				1.00337
				0.670319
				1.46717
				1.03205
				1.48209
				1.29614
				1.22788
				1.44933
				0.85991
				0.98157
				0.691891
				1.09545
				1.42914
				1.47573
				0.711867
				0.802757
				1.40459
				0.731779
				1.20506
				0.884723
				0.961209
				1.12802
				1.34025
				1.17826
				0.908704
				0.935587
				1.1531
				1.48232
				0.617639
				1.48332
				1.48092
				1.47933
				0.779305
				1.02319
				1.48121
				1.38508
				1.26858
				0.651494
				0.752593
				0.828486
				1.06253
				1.47797
				0.660314
				0.996052
				1.32808
				1.03689
				0.685582
				0.790782
				1.46178
				1.0586
				1.44781
				0.706559
				1.02737
				1.24852
				1.47608
				1.42995
				0.725936
				1.35636
				0.852243
				1.4769
				1.46853
				1.47635
				1.46621
				1.47321
				1.40679
				1.47017
				0.775931
				0.998183
				1.0742
				1.08936
				1.47456
				1.299
				0.746163
				1.22098
				0.648113
				1.4754
				0.879787
				0.979913
				1.11646
				0.823342
				1.19969
				0.905146
				0.956153
				1.14973
				0.991608
				0.839983
				1.16951
				0.928763
				1.05571
				0.631755
				1.02052
				1.46838
				0.678518
				1.37786
				1.28339
				1.32055
				0.702601
				1.45509
				1.43815
				0.834729
				0.772162
				0.723096
				1.47264
				0.81242
				1.4212
				1.47368
				1.46931
				1.4618
				1.47043
				0.742768
				1.0753
				1.46991
				1.06995
				1.03614
				1.25932
				0.657264
				0.98331
				1.36468
				0.867187
				1.05166
				1.46764
				1.02406
				1.02226
				0.785058
				1.1017
				1.39255
				1.23093
				0.691653
				0.862027
				0.894184
				0.997516
				1.12745
				0.655959
				0.770163
				1.46444
				1.21085
				0.919304
				0.970595
				1.16011
				0.714522
				1.18205
				0.944526
				1.4441
				1.46748
				1.43446
				0.737336
				1.06963
				1.46755
				1.28024
				1.45894
				1.46515
				1.46225
				0.854171
				1.4649
				1.05781
				1.4529
				1.46453
				1.32738
				0.977641
				1.00767
				1.41403
				1.04038
				0.826137
				0.678243
				1.35576
				0.761466
				1.05978
				1.46324
				0.81112
				1.09184
				0.70678
				1.25298
				1.46513
				1.0359
				1.46395
				0.649675
				1.02095
				0.882603
				0.693887
				0.730996
				1.4634
				1.46178
				1.42736
				1.45518
				1.39794
				1.11674
				1.0525
				1.46052
				0.970537
				1.22317
				0.914298
				0.991473
				0.773524
				1.1544
				1.44917
				1.01044
				1.20531
				1.03305
				0.938514
				0.961824
				1.17368
				0.754639
				1.46029
				1.28912
				0.86904
				0.693479
				1.45639
				1.46176
				1.46012
				0.723332
				1.04622
				1.31436
				1.4597
				1.45802
				1.45286
				0.898093
				1.4556
				1.07343
				0.854516
				0.965208
				0.735085
				0.679771
				0.995501
				1.45269
				1.36275
				1.03967
				1.45664
				0.673782
				1.39394
				1.25547
				1.10588
				1.02539
				1.4268
				0.904513
				0.820813
				0.795073
				1.44177
				1.13416
				1.4551
				1.23831
				0.919695
				0.999582
				1.15507
				1.21304
				0.957565
				0.985108
				1.1939
				0.715004
				1.45877
				1.45867
				1.45725
				0.776545
				1.0466
				1.45516
				1.45652
				0.958835
				1.45335
				1.27808
				1.03301
				0.999442
				1.37753
				1.02039
				0.916089
				0.895747
				1.43197
				0.760831
				0.684585
				0.816493
				1.44618
				1.45258
				0.693171
				1.09598
				1.06693
				1.32474
				1.03813
				1.44109
				0.865827
				1.45512
				1.04354
				1.45468
				1.45346
				0.726535
				1.12892
				1.45171
				1.02357
				1.34741
				1.03353
				1.23456
				1.45211
				1.44796
				1.45261
				0.953209
				1.40059
				1.45018
				0.984312
				0.942141
				1.41391
				0.851275
				1.17443
				0.793906
				1.01242
				1.02562
				0.682419
				0.980669
				1.44713
				1.19484
				0.784659
				0.714926
				1.44383
				1.44927
				1.28668
				0.690107
				1.02847
				0.911939
				1.45282
				0.768658
				1.45253
				1.42423
				1.45132
				1.37237
				0.946992
				1.43244
				1.02465
				1.44981
				1.08069
				1.44943
				0.987495
				1.10967
				1.44672
				0.836668
				0.754265
				1.01864
				1.00674
				1.31192
				0.807771
				1.13863
				1.03859
				1.24492
				0.894869
				0.694059
				1.44454
				0.956602
				1.3566
				0.999343
				1.3891
				0.716326
				0.959787
				0.761132
				1.44971
				1.41785
				0.856345
				1.02617
				1.43604
				1.44907
				1.44539
				1.44886
				0.941311
				0.973554
				0.691719
				1.17989
				1.44743
				1.44401
				1.0189
				1.44663
				1.44581
				0.99926
				1.2083
				1.01197
				1.27295
				1.44418
				1.43006
				0.942393
				1.10592
				0.834915
				0.792898
				1.0637
				1.12543
				1.43878
				1.44795
				1.44784
				0.934944
				0.761358
				0.740233
				1.02188
				1.3203
				1.44625
				1.44692
				0.938503
				0.813014
				1.1662
				0.976742
				1.02843
				0.719763
				1.01421
				0.904991
				0.690359
				1.44558
				1.43505
				0.995173
				1.34752
				1.23554
				1.44296
				1.44363
				1.40797
				1.00692
				1.39119
				0.986043
				0.886193
				1.43963
				1.02404
				1.20013
				0.927129
				1.44612
				1.44587
				0.961993
				1.28453
				1.01695
				1.42181
				1.4449
				1.44399
				1.11474
				1.43717
				0.98828
				0.957013
				1.44357
				1.44085
				1.00636
				0.999526
				1.44225
				0.864298
				1.44149
				1.08917
				0.80482
				1.14021
				0.698497
				0.800592
				0.71863
				1.42838
				1.43942
				0.743574
				1.04783
				0.78237
				1.30606
				1.16857
				1.00148
				0.846755
				1.24682
				1.00884
				0.91715
				0.935789
				1.35259
				1.44483
				1.43781
				1.44415
				1.44413
				1.41224
				0.960624
				1.38495
				1.00841
				0.88613
				1.20706
				1.44329
				1.44177
				0.978716
				0.999314
				0.990895
				1.44209
				1.43183
				1.43875
				0.792664
				1.13378
				1.42308
				0.715093
				1.27142
				1.43769
				0.720655
				0.987122
				0.964584
				1.08008
				0.908415
				1.36777
				1.01174
				0.946609
				1.44218
				1.44215
				1.44265
				0.970008
				1.42793
				0.764837
				1.00053
				1.44118
				0.834053
				1.43967
				1.4337
				0.981089
				0.856363
				1.18972
				0.989102
				1.03216
				1.44048
				1.43844
				1.43951
				1.31517
				0.785869
				1.23207
				1.43704
				0.946537
				1.40227
				1.43095
				0.902315
				1.33481
				0.898602
				0.947801
				0.733731
				1.38851
				0.940528
				0.707808
				0.998295
				1.43444
				0.742896
				1.44059
				1.4411
				0.958357
				0.988974
				1.41429
				1.44012
				1.14424
				0.969691
				0.97786
				1.43766
				1.28065
				1.43936
				0.997606
				1.0956
				1.43255
				1.42221
				1.36473
				0.937929
				1.43448
				1.04694
				1.19671
				0.891334
				0.983565
				0.840508
				0.76645
				0.930247
				0.881929
				1.24113
				0.949382
				0.990118
				1.42631
				1.43921
				1.30393
				1.4385
				0.815537
				0.832167
				0.960631
				0.728409
				0.979459
				0.979896
				1.43876
				0.723507
				1.43327
				0.968316
				1.40502
				1.43627
				0.903715
				1.43814
				1.4366
				1.34558
				1.43741
				1.37796
				0.74459
				1.12861
				1.42875
				0.885016
				1.41652
				1.17661
				0.981063
				0.925338
				1.26638
				1.43346
				0.941413
				1.43807
				1.02809
				0.97933
				1.07916
				1.43826
				1.43642
				0.951259
				0.971215
				0.959547
				1.42245
				1.43789
				1.43431
				0.812995
				0.962466
				1.43729
				0.793402
				1.4303
				0.717482
				1.22454
				0.721213
				0.864589
				0.886802
				1.42586
				1.3119
				0.879731
				0.817316
				0.915579
				1.3998
				0.98157
				0.956067
				1.33654
				0.977147
				0.932836
				1.4282
				0.941813
				1.37725
				1.43669
				0.943746
				0.971076
				1.43688
				1.43535
				0.951057
				1.4312
				0.962237
				1.14103
				0.770382
				1.43674
				1.4109
				1.43341
				1.43635
				1.43527
				1.18753
				1.27432
				1.43583
				1.04003
				1.09237
				0.870533
				0.731525
				1.42973
				0.703332
				1.41704
				0.939955
				0.91044
				1.23233
				0.928317
				0.969738
				1.43613
				0.932379
				1.43531
				1.38692
				0.960829
				0.794117
				1.42153
				0.744745
				0.939105
				1.43625
				0.952569
				1.4338
				0.865357
				1.29812
				0.920284
				1.0114
				1.43607
				0.841227
				1.4248
				1.40394
				1.43069
				0.947793
				1.43164
				1.43572
				1.34177
				0.862232
				0.897674
				1.16884
				1.36215
				0.961389
				0.915558
				0.831112
				1.12291
				1.41178
				0.771774
				1.4271
				0.727568
				0.959005
				0.719055
				0.929982
				1.43509
				1.43446
				1.25872
				1.07307
				1.21536
				0.950368
				1.43534
				0.941203
				1.43309
				1.41747
				1.43525
				1.43506
				1.43437
				1.4312
				1.43473
				0.84282
				1.42868
				0.817146
				0.889715
				1.42174
				1.38764
				0.745339
				0.955967
				0.904814
				0.921768
				1.30476
				1.02033
				0.894886
				1.39634
				1.42485
				0.943177
				0.971468
				0.914644
				1.43422
				0.839064
				1.43473
				1.43327
				0.934998
				0.814778
				0.926206
				1.42706
				0.715787
				1.4349
				1.17731
				1.43181
				1.32789
				1.43486
				1.40553
				1.13357
				0.788301
				0.836502
				1.43466
				1.0835
				1.3669
				1.266
				0.869796
				1.42974
				0.718949
				1.2229
				0.893836
				0.925618
				1.41263
				0.942353
				0.904251
				1.42864
				0.932206
				1.43381
				1.00685
				0.913701
				1.43424
				1.43274
				0.923
				1.41783
				0.811645
				1.43422
				0.813577
				1.37864
				1.43148
				0.766246
				1.43417
				0.728079
				1.42184
				1.39806
				0.698924
				1.2902
				0.945346
				1.434
				1.43393
				0.894993
				1.05739
				1.43401
				1.42474
				0.858534
				1.42968
				0.910097
				0.865905
				0.970353
				0.882006
				1.15931
				0.92935
				1.20484
				0.891984
				0.829373
				1.33395
				1.40725
				0.918308
				1.11559
				1.43365
				1.433
				0.900855
				1.42693
				0.789744
				0.909188
				1.43386
				1.43186
				1.24945
				0.741809
				1.4339
				1.35281
				1.41368
				1.43044
				1.43385
				1.43386
				1.43392
				0.866471
				0.715517
				0.809995
				1.01802
				0.917594
				1.41865
				0.881331
				1.42845
				0.837086
				0.915199
				0.829149
				0.889791
				1.42238
				1.39132
				1.38182
				0.769628
				1.43281
				1.29598
				1.43277
				0.905315
				1.068
				0.89645
				1.42524
				0.70967
				1.43322
				0.918699
				0.946046
				1.43147
				0.857527
				1.43323
				1.16715
				1.42727
				0.995198
				1.20996
				1.43356
				1.43037
				1.40181
				1.12423
				1.43384
				1.25614
				0.809213
				1.4338
				0.846423
				1.31949
				0.816448
				0.89888
				0.863901
				0.73884
				1.40928
				0.893004
				0.701281
				0.793299
				0.870307
				1.35826
				1.4287
				0.883781
				0.875173
				1.43212
				1.43306
				1.41532
				1.04652
				0.833452
				1.43081
				1.43362
				1.43324
				1.41989
				1.43343
				1.42949
				1.42318
				0.794697
				1.39471
				0.867897
				1.37249
				1.42589
				1.2801
				1.0998
				0.845607
				0.701455
				0.888304
				1.18969
				0.879999
				0.86186
				0.91506
				0.99782
				0.971677
				0.820318
				1.15161
				0.879748
				0.863469
				1.40358
				1.238
				0.871211
				1.43175
				1.43242
				0.717441
				1.42778
				1.32576
				1.4308
				1.43292
				1.41098
				0.762212
				1.42965
				0.673945
				0.869799
				1.34618
				1.41679
				1.05133
				0.877228
				0.849677
				1.43303
				0.864957
				1.4208
				0.835319
				0.849415
				0.861257
				1.43189
				1.42423
				1.38815
				1.43117
				1.42662
				1.10674
				1.28602
				1.4326
				0.788884
				1.37884
				1.1946
				1.4301
				0.71781
				1.15709
				0.697608
				1.42815
				0.845403
				1.23991
				0.872493
				0.937133
				1.39972
				1.02557
				0.968775
				0.78271
				1.42897
				0.868545
				0.8437
				0.863516
				1.4074
				1.31114
				0.855905
				0.847553
				1.43171
				0.756789
				1.43084
				0.681145
				1.41384
				1.43233
				1.353
				1.08102
				1.43051
				1.41844
				1.42273
				1.42562
				1.42761
				0.850256
				1.42925
				1.39374
				0.785533
				1.13521
				0.810976
				1.17795
				1.26713
				1.36972
				0.849107
				1.2179
				0.676883
				0.837796
				0.710751
				1.43178
				1.02571
				1.43108
				1.40199
				0.837175
				0.926335
				0.994742
				0.894737
				1.42999
				0.82349
				1.40946
				1.31711
				0.831249
				0.77457
				1.41518
				1.42885
				0.81678
				0.6701
				1.43133
				1.08336
				0.712163
				1.42052
				1.42824
				0.808333
				1.34092
				1.42422
				1.42649
				1.43103
				1.38796
				1.14032
				1.27322
				1.18315
				1.42998
				0.799913
				1.21166
				1.37998
				0.777845
				0.723209
				0.656292
				1.39553
				1.43036
				1.05442
				1.42902
				0.850832
				0.981714
				0.944561
				1.40482
				0.88439
				1.41332
				1.30135
				0.75726
				0.678322
				1.41819
				0.687205
				1.42738
				1.42345
				1.11171
				1.42621
				0.773931
				0.745841
				0.791904
				1.42961
				1.34787
				1.1666
				1.25517
				1.22359
				1.4287
				1.39787
				0.817496
				1.36988
				0.642357
				0.722818
				1.056
				0.781593
				0.845498
				1.40869
				1.42952
				0.987858
				0.927256
				0.901686
				1.30918
				1.41425
				0.768344
				0.791043
				1.11767
				0.621423
				1.42536
				1.15859
				1.42891
				1.42912
				1.26456
				1.21243
				0.818084
				1.4208
				1.4279
				1.39295
				0.662466
				1.02349
				1.33788
				0.791112
				1.40719
				1.09132
				1.37777
				1.29286
				1.17627
				0.591312
				0.74682
				0.945222
				0.74438
				0.869852
				1.23854
				1.39945
				1.41226
			</DataArray>
			<DataArray type="Float64" Name="mach-number" Format="ascii">
				0.444887
				1.35653
				1.48523
				1.18313
				0.871191
				1.80781
				0.426908
				1.77971
				0.900671
				1.51512
				1.20932
				1.45405
				0.841046
				1.14716
				0.52805
				1.75993
				1.54649
				0.808379
				0.930325
				0.585021
				1.23785
				1.72855
				1.42093
				1.57989
				1.11741
				0.772719
				0.637499
				1.69179
				1.61566
				0.732467
				0.68682
				1.65313
				0.961443
				1.26825
				1.38812
				1.08828
				0.993179
				1.29659
				1.35858
				1.05627
				1.02359
				1.32881
				0.497004
				0.417817
				1.79223
				0.879971
				0.496922
				1.48683
				1.51672
				1.78583
				0.850528
				0.556079
				1.7658
				0.647916
				1.54821
				0.819437
				0.611227
				1.18501
				1.73741
				1.58223
				0.909268
				0.785654
				0.660436
				1.69975
				1.21174
				1.4563
				1.619
				0.74833
				0.706557
				1.65858
				1.15404
				0.509272
				0.9389
				1.24095
				1.42417
				1.1204
				0.486672
				0.969766
				1.26989
				1.39129
				1.09174
				1.73994
				0.999885
				1.29978
				1.35999
				1.06193
				0.50812
				0.490617
				1.02995
				1.33032
				1.49158
				1.76132
				0.840631
				0.56004
				1.73573
				1.52136
				0.809957
				0.745231
				0.870207
				0.60947
				1.70237
				1.55293
				0.77633
				0.655529
				1.66353
				1.58683
				1.4621
				0.73961
				0.699275
				1.62388
				0.811437
				1.16805
				0.509723
				0.898834
				1.43191
				1.19522
				1.13896
				1.7654
				0.927898
				1.40105
				1.22276
				0.539579
				0.508889
				1.10705
				1.74012
				1.49632
				0.762776
				0.821271
				0.544786
				0.850623
				0.957904
				0.588337
				1.36958
				1.25042
				1.70728
				1.07766
				1.52614
				0.987272
				0.789154
				1.33804
				1.27983
				1.04821
				0.632641
				1.46739
				1.6691
				1.01706
				1.30831
				1.55778
				0.754659
				0.676016
				1.62966
				1.59234
				0.717091
				0.920352
				0.531396
				0.52982
				0.879986
				1.43741
				0.77625
				1.70596
				1.17457
				1.14406
				0.549746
				1.71264
				0.772678
				0.814174
				1.47511
				0.530793
				0.591126
				0.907984
				1.67633
				1.40678
				1.20117
				1.50391
				0.782837
				1.1171
				0.635181
				1.63912
				1.53389
				0.53832
				0.749655
				0.675255
				1.60186
				1.56669
				0.713473
				0.937507
				1.3763
				1.22761
				1.08494
				0.842791
				0.966759
				1.34567
				1.25732
				0.814332
				1.44305
				1.05592
				0.995677
				1.31409
				1.2844
				1.02622
				1.44657
				0.545234
				0.779807
				0.57106
				1.72663
				0.54554
				0.575414
				0.559955
				1.682
				0.871493
				0.79455
				0.612989
				1.47909
				1.64411
				0.545109
				0.555797
				1.41667
				1.50785
				0.763127
				0.655688
				1.60711
				1.15932
				1.53874
				0.728931
				0.69337
				1.57186
				1.12936
				0.824016
				0.898622
				0.789887
				1.45067
				1.38651
				1.1852
				1.55101
				1.10421
				0.927484
				1.35708
				1.21017
				1.07234
				0.791371
				1.05435
				0.560803
				0.95558
				1.32707
				1.23925
				1.0427
				1.68826
				0.984171
				0.852193
				1.29488
				1.26523
				1.01412
				0.565195
				0.571239
				0.582234
				1.64959
				1.42158
				0.565187
				0.61875
				1.6144
				0.787084
				1.48458
				0.755432
				0.655271
				1.57969
				1.5146
				0.723284
				0.565122
				0.690152
				1.54622
				1.45693
				0.830178
				0.879775
				1.13543
				1.39158
				0.799516
				1.71334
				1.1647
				0.592008
				0.813155
				1.10806
				0.582953
				0.578654
				1.17329
				0.575525
				1.42908
				0.907036
				1.65853
				1.362
				1.1886
				1.08249
				0.578905
				0.600792
				1.61927
				0.93569
				1.33299
				0.640159
				1.21608
				1.58449
				1.04914
				0.766814
				0.930615
				1.4889
				1.45998
				0.736702
				0.577045
				0.67198
				1.55119
				0.96281
				1.30242
				1.51915
				1.24267
				0.705027
				1.02057
				0.99217
				0.842352
				1.27063
				0.822303
				1.40048
				0.810297
				0.797418
				1.7286
				0.586308
				1.43251
				0.584556
				0.867568
				1.1209
				1.62798
				0.586985
				0.961708
				1.37083
				0.607793
				0.585521
				1.59056
				1.14718
				1.56825
				1.09427
				0.641549
				1.55822
				1.46778
				0.820991
				0.733486
				0.670991
				1.52682
				1.49627
				0.700956
				0.894831
				0.866267
				1.34094
				1.16994
				0.59377
				1.06795
				1.40426
				0.81918
				0.759061
				0.922537
				1.31166
				1.19626
				1.03441
				0.949043
				1.2822
				0.608073
				1.22141
				1.00517
				1.44009
				0.600972
				0.978083
				1.2504
				0.596377
				0.595267
				1.63241
				0.851063
				0.597079
				0.940019
				1.37568
				1.59593
				0.604467
				0.788652
				0.630621
				1.56218
				0.595768
				0.657178
				1.59013
				1.53119
				1.41488
				1.47179
				0.714754
				0.686089
				1.50094
				1.13104
				0.854137
				0.824968
				1.12673
				0.746359
				0.873831
				1.09911
				1.34623
				1.44465
				0.598111
				1.14945
				0.600556
				0.602967
				1.07353
				0.810127
				0.600578
				0.902682
				1.31673
				1.3869
				1.61785
				1.17442
				1.04571
				0.953074
				0.928835
				0.769108
				0.60536
				1.28703
				1.19819
				1.01028
				1.56875
				0.956088
				1.25756
				1.22695
				0.985192
				0.635445
				1.41824
				1.53699
				0.833784
				0.89571
				0.616556
				0.659114
				0.840393
				1.5085
				0.711479
				0.688217
				1.4804
				1.45209
				0.604946
				1.35773
				1.61821
				1.27166
				0.621202
				0.607583
				0.61048
				0.796812
				0.615224
				0.608881
				0.612125
				0.988537
				1.39205
				1.10588
				0.861166
				1.09189
				0.742084
				1.32914
				1.5798
				0.95764
				1.42468
				1.1308
				1.059
				0.841873
				1.54238
				0.629104
				0.873619
				0.613415
				0.819169
				0.890723
				0.650299
				1.29622
				1.15563
				1.51203
				1.03175
				0.674185
				0.619308
				1.48454
				1.366
				0.701666
				1.45767
				0.915053
				1.26669
				1.17856
				0.997242
				0.770863
				0.943565
				1.23864
				1.20771
				0.970123
				0.612601
				1.62484
				0.611564
				0.614283
				0.616183
				1.39537
				1.02294
				0.614436
				0.723922
				0.847251
				1.55319
				1.42957
				1.33438
				0.963646
				0.617943
				1.55718
				0.851821
				0.786426
				0.913015
				1.52122
				1.38072
				0.635259
				1.07145
				0.653918
				1.4922
				1.10588
				0.86934
				0.620044
				0.674173
				1.46599
				0.75433
				1.30542
				0.619337
				0.629312
				0.619244
				0.631755
				0.623327
				0.701572
				0.627086
				1.40007
				1.1367
				0.962738
				1.03795
				0.621977
				0.816493
				1.43929
				0.898506
				1.57463
				0.62087
				1.27263
				1.15776
				1.00935
				1.34043
				0.921037
				1.24292
				1.18458
				0.973855
				0.858961
				1.22398
				0.952976
				1.21558
				0.967324
				1.49582
				0.896546
				0.62934
				1.53141
				0.731655
				0.832689
				0.795144
				1.49802
				0.645722
				0.66532
				1.32649
				1.40534
				1.4701
				0.624073
				1.35424
				0.685384
				0.623477
				0.628149
				0.635975
				0.626621
				1.44382
				0.97215
				0.627222
				1.05912
				1.09582
				0.858566
				1.56381
				0.870971
				0.745451
				1.28771
				0.978943
				0.629757
				0.93612
				1.1112
				1.38878
				1.0253
				0.715914
				0.88962
				1.51304
				1.27317
				1.25591
				1.13873
				0.997835
				1.55959
				1.40865
				0.633752
				0.909657
				1.22662
				1.16913
				0.962821
				1.48133
				0.940816
				1.19768
				0.65705
				0.630129
				0.667497
				1.45041
				0.985646
				0.630052
				0.837539
				0.640181
				0.632953
				0.636302
				1.30304
				0.6331
				0.986858
				0.648415
				0.633452
				0.786956
				0.879118
				0.920565
				0.691931
				0.98636
				1.33794
				1.53125
				0.757444
				1.41878
				1.07041
				0.635117
				1.35741
				1.03528
				1.49157
				0.866407
				0.633026
				1.03031
				0.634278
				1.58202
				1.1133
				1.26911
				1.49622
				1.45895
				0.634616
				0.636785
				0.677705
				0.644609
				0.707984
				1.00905
				1.00484
				0.638141
				0.89027
				0.896668
				1.23267
				1.14574
				1.4034
				0.970084
				0.651019
				0.95991
				0.916254
				1.00274
				1.20487
				1.17768
				0.949017
				1.42763
				0.638506
				0.827176
				1.28626
				1.51021
				0.642781
				0.637495
				0.638951
				1.46899
				1.01811
				0.800389
				0.639355
				0.64119
				0.647201
				1.19112
				0.644008
				1.05626
				1.30406
				0.897431
				1.45285
				1.52796
				0.943369
				0.647114
				0.748016
				1.0116
				0.642717
				1.44711
				0.713389
				0.862925
				1.02187
				1.00501
				0.677514
				1.24464
				1.34466
				1.37678
				0.659438
				0.992162
				0.644207
				0.880386
				1.22661
				1.13686
				0.969379
				0.909358
				1.18401
				1.15352
				0.928703
				1.4806
				0.640365
				0.640388
				0.642082
				1.40018
				1.01989
				0.644499
				0.642902
				0.908333
				0.646331
				0.83954
				1.02589
				0.98054
				0.730627
				1.01973
				1.16852
				1.25527
				0.670087
				1.42153
				1.52112
				1.34941
				0.654364
				0.647169
				1.50515
				1.03172
				1.0637
				0.786708
				1.09479
				0.660196
				1.28949
				0.644678
				1.01924
				0.644809
				0.646391
				1.46551
				0.997575
				0.64822
				1.11065
				0.762677
				1.03318
				0.885738
				0.648049
				0.652828
				0.647242
				0.915703
				0.705245
				0.650266
				0.965237
				1.20196
				0.690093
				1.30715
				0.948733
				1.37837
				1.02184
				1.02993
				1.5269
				1.1585
				0.653347
				0.927597
				1.36161
				1.4821
				0.657371
				0.650969
				0.828071
				1.51149
				1.04422
				1.23529
				0.647252
				1.41075
				0.647628
				0.678062
				0.648987
				0.736208
				0.926987
				0.670959
				1.04477
				0.650651
				1.04838
				0.650772
				1.00229
				1.01656
				0.653904
				1.32344
				1.42976
				1.04402
				1.03813
				0.801806
				1.35874
				0.986064
				1.09317
				0.872431
				1.25519
				1.51035
				0.656565
				1.18428
				0.75332
				1.1362
				0.719577
				1.4789
				1.1451
				1.38868
				0.65079
				0.686971
				1.29912
				1.04582
				0.666216
				0.651294
				0.655426
				0.651834
				0.934332
				0.986727
				1.51368
				0.942058
				0.653418
				0.657353
				1.04995
				0.654047
				0.65528
				1.03934
				0.911329
				1.04813
				0.843807
				0.656936
				0.67291
				1.20045
				1.0204
				1.32641
				1.37933
				1.06508
				0.999477
				0.662859
				0.65268
				0.652953
				0.946662
				1.41991
				1.44765
				1.05651
				0.794578
				0.65433
				0.653946