<VTKFile type="UnstructuredGrid" version="0.1" byte_order="LittleEndian">
<UnstructuredGrid>
	<Piece NumberOfPoints="839" NumberOfCells="1559">
		<CellData Scalars="density" Vectors="velocity">
			<DataArray type="Float64" Name="density" Format="ascii">
				1.63214
				0.653222
				0.741821
				0.993222
				1.28349
				0.531051
				1.72237
				0.541214
				1.25539
				0.719805
				0.96403
				0.764919
				1.31332
				1.01962
				1.61561
				0.55306
				0.69717
				1.34562
				1.22731
				1.56125
				0.948221
				0.572169
				0.789826
				0.673472
				1.04837
				1.38112
				1.51229
				0.595863
				0.648523
				1.42137
				1.46633
				0.622384
				1.19828
				0.918889
				0.816126
				1.07717
				1.16846
				0.893338
				0.84232
				1.10732
				1.1382
				0.866814
				1.14743
				1.65823
				0.531538
				1.28082
				1.64212
				0.743586
				0.72134
				0.54065
				1.30946
				1.58927
				0.55242
				1.09812
				0.698439
				1.34021
				1.53962
				0.99906
				0.571706
				0.674397
				1.25326
				1.37364
				1.49495
				0.595657
				0.976531
				0.766839
				0.64909
				1.41055
				1.45135
				0.622549
				1.02892
				1.59793
				1.22569
				0.952271
				0.791664
				1.05551
				1.61132
				1.19748
				0.924681
				0.818107
				1.0828
				0.541009
				1.16897
				0.897845
				0.845344
				1.11081
				1.61788
				1.62874
				1.13989
				0.871895
				0.733958
				0.555297
				1.31438
				1.58015
				0.571244
				0.711881
				1.34498
				1.11901
				1.28578
				1.53617
				0.590909
				0.688902
				1.37807
				1.49485
				0.614267
				0.664834
				0.755722
				1.41426
				1.45364
				0.63969
				0.881052
				1.00057
				1.60186
				1.25829
				0.77837
				0.979714
				1.03055
				0.554744
				1.23075
				0.802305
				0.955941
				1.59493
				1.60791
				1.0581
				0.57077
				0.735806
				1.1111
				1.34041
				1.5737
				1.31142
				1.20253
				1.55661
				0.827732
				0.930267
				0.590632
				1.0862
				0.71336
				1.17382
				1.37164
				0.854072
				0.904493
				1.11489
				1.51941
				0.757895
				0.614273
				1.14444
				0.879999
				0.690042
				1.40524
				1.47934
				0.640042
				0.665559
				1.44125
				0.839907
				1.5821
				1.58424
				1.28407
				0.78086
				1.06714
				0.565393
				1.01472
				1.0359
				1.59386
				0.586925
				1.09205
				1.34401
				0.747501
				1.59326
				1.55328
				1.25738
				0.60838
				0.805087
				0.983529
				0.725801
				1.37486
				1.06525
				1.51788
				0.63126
				0.703398
				1.57809
				1.40789
				1.47966
				0.655588
				0.679889
				1.44296
				1.23031
				0.830332
				0.962799
				1.09146
				1.31533
				1.20321
				0.856543
				0.935505
				1.03123
				0.641231
				1.11926
				1.17518
				0.88342
				0.910807
				1.14696
				0.769087
				1.57654
				1.08717
				1.55254
				0.586423
				1.5806
				1.56496
				1.55937
				0.60808
				1.28812
				1.3689
				1.53812
				0.749226
				0.631226
				1.57659
				1.56272
				0.791513
				0.727234
				1.39961
				1.5004
				0.655858
				1.01637
				0.704377
				1.4318
				1.46531
				0.680509
				1.0373
				1.3402
				1.26149
				1.08761
				0.771226
				0.815103
				0.986793
				0.632418
				1.06747
				1.23456
				0.839456
				0.967105
				1.09438
				1.07591
				0.863735
				1.56082
				1.20739
				0.864729
				0.941214
				1.12271
				0.598277
				1.17925
				1.31357
				0.890972
				0.917809
				1.15084
				1.55731
				1.5656
				1.54928
				0.623462
				0.794029
				1.5585
				1.53105
				0.646847
				1.37177
				0.738867
				1.40179
				1.4975
				0.670296
				0.716759
				1.43288
				1.56618
				1.4648
				0.693807
				0.759753
				1.07934
				1.28774
				1.05311
				0.818022
				1.07319
				0.597716
				1.02017
				1.53624
				1.34357
				1.06986
				1.54206
				1.54535
				0.825916
				1.55431
				0.780924
				1.26129
				0.623013
				0.842941
				0.995078
				1.09989
				1.5457
				1.54474
				0.646648
				1.23568
				0.867975
				1.51215
				0.972931
				0.670393
				1.12687
				1.39404
				1.03377
				0.739963
				0.76138
				1.42282
				1.55176
				1.48193
				0.69421
				1.20868
				0.893738
				0.717544
				0.948843
				1.45217
				1.15474
				1.18132
				1.31735
				0.921189
				1.08242
				0.803046
				1.06465
				1.36648
				0.603595
				1.54081
				0.782633
				1.54289
				1.2914
				1.05411
				0.634307
				1.54199
				0.997102
				0.826344
				1.53925
				1.54199
				0.660057
				1.02243
				0.674365
				1.07185
				1.50817
				0.68347
				0.750046
				1.34113
				1.42404
				1.47999
				0.70623
				0.728669
				1.45204
				1.26526
				1.07564
				0.851189
				0.999008
				1.54327
				1.10248
				0.805298
				1.06021
				1.3964
				1.23957
				0.875772
				0.97748
				1.13
				1.21258
				0.900844
				1.52289
				0.954955
				1.15827
				0.770741
				1.52823
				1.18521
				0.927618
				1.5318
				1.53251
				0.633706
				1.31764
				1.53093
				1.08111
				0.828908
				0.659603
				1.52965
				1.36983
				1.51519
				0.683271
				1.53714
				1.49197
				0.668381
				0.706372
				0.788449
				0.750989
				1.44105
				1.46671
				0.729109
				0.853686
				1.07046
				1.0538
				1.05901
				1.41434
				1.29092
				1.08366
				0.854278
				0.771822
				1.53273
				1.03209
				1.53003
				1.52732
				1.09956
				1.34476
				1.53013
				1.26709
				0.879981
				0.811701
				0.639502
				1.00592
				1.13377
				1.06574
				1.24071
				1.3888
				1.52801
				0.904837
				0.986673
				1.16123
				0.669582
				1.21393
				0.930698
				0.957953
				1.18885
				1.5125
				0.790191
				0.694529
				1.04884
				1.06432
				1.52547
				1.48969
				1.32138
				0.71737
				1.44115
				1.46571
				0.739258
				0.761228
				1.52627
				0.832663
				0.641708
				0.82491
				1.5119
				1.523
				1.52055
				1.36553
				1.51641
				1.52068
				1.52663
				1.01278
				0.813335
				1.06712
				1.29496
				1.08771
				1.41611
				0.85856
				0.668909
				1.07884
				0.780081
				1.03507
				1.10259
				1.04355
				0.69395
				1.51197
				1.05881
				1.51835
				1.34606
				1.27093
				1.49783
				0.886179
				1.0112
				0.716987
				1.13658
				1.477
				1.51645
				0.739306
				0.83509
				1.45522
				0.761437
				1.24452
				0.910925
				0.991591
				1.16477
				1.38901
				1.21823
				0.936725
				0.963423
				1.19258
				1.51884
				0.640971
				1.52068
				1.52174
				1.51573
				0.803048
				0.981127
				1.51933
				1.42993
				1.31974
				0.710599
				0.781112
				0.861193
				1.07249
				1.51658
				0.674106
				1.03764
				1.37191
				1.05224
				0.701759
				0.814861
				1.50621
				1.10655
				1.4951
				0.725484
				1.07818
				1.29795
				1.51533
				1.47421
				0.748066
				1.4058
				0.889547
				1.51383
				1.51204
				1.51132
				1.50295
				1.5099
				1.45456
				1.50671
				0.80433
				1.04315
				1.07467
				1.13035
				1.51055
				1.34643
				0.767894
				1.27228
				0.673096
				1.51242
				0.915821
				1.02225
				1.16798
				0.846876
				1.24444
				0.94169
				0.993638
				1.19426
				1.03292
				0.866905
				1.22253
				0.967082
				1.066
				0.703232
				1.04705
				1.51116
				0.701144
				1.42615
				1.3295
				1.37431
				0.724754
				1.49877
				1.48368
				0.863271
				0.794065
				0.747461
				1.50906
				0.844327
				1.46689
				1.5115
				1.50621
				1.5029
				1.50686
				0.767959
				1.05971
				1.50854
				1.11108
				1.07803
				1.30206
				0.672755
				1.02576
				1.4079
				0.892514
				1.05753
				1.50833
				1.03903
				1.05788
				0.805011
				1.1335
				1.44219
				1.27594
				0.706004
				0.843404
				0.918236
				1.0265
				1.17046
				0.679903
				0.794541
				1.50267
				1.24867
				0.944705
				0.996767
				1.19754
				0.728057
				1.22671
				0.972985
				1.49067
				1.50372
				1.4766
				0.75372
				1.01706
				1.50344
				1.33326
				1.49566
				1.50158
				1.49878
				0.886226
				1.5008
				1.06842
				1.49633
				1.50406
				1.37196
				1.02151
				1.03467
				1.46091
				1.05208
				0.846366
				0.704814
				1.40891
				0.778061
				1.10316
				1.50048
				0.839508
				1.14018
				0.727857
				1.30425
				1.50249
				0.988296
				1.50083
				0.678361
				1.07264
				0.921641
				0.751152
				0.752822
				1.50142
				1.49841
				1.47519
				1.4979
				1.44285
				1.16268
				1.05998
				1.49893
				1.01381
				1.27331
				0.949959
				1.02862
				0.793231
				1.20039
				1.48913
				1.02611
				1.25372
				1.04302
				0.979926
				1.00123
				1.22839
				0.777356
				1.49679
				1.33182
				0.889425
				0.707127
				1.4969
				1.49782
				1.49661
				0.739494
				1.06205
				1.36644
				1.49535
				1.49451
				1.48967
				0.910645
				1.49224
				1.1084
				0.88606
				1.01001
				0.751651
				0.704184
				1.02226
				1.49107
				1.40879
				1.05374
				1.49274
				0.73888
				1.4433
				1.30329
				1.14442
				1.03849
				1.47179
				0.932855
				0.840195
				0.815695
				1.4846
				1.16991
				1.49411
				1.28127
				0.953083
				1.02812
				1.20542
				1.25486
				0.982716
				1.01258
				1.24115
				0.737408
				1.49544
				1.49597
				1.49388
				0.790288
				1.04999
				1.49194
				1.49426
				1.00198
				1.49019
				1.32874
				1.04506
				1.01353
				1.41956
				1.02939
				0.886767
				0.935568
				1.4719
				0.782487
				0.703567
				0.840604
				1.48728
				1.49084
				0.728458
				1.13894
				1.12068
				1.36688
				1.07249
				1.47894
				0.887192
				1.49197
				1.02717
				1.49029
				1.4902
				0.736522
				1.18039
				1.48812
				1.05905
				1.39729
				1.05202
				1.28584
				1.48878
				1.48468
				1.48875
				0.998438
				1.44013
				1.4869
				1.01001
				0.977958
				1.45985
				0.882522
				1.21821
				0.815176
				1.02528
				1.03996
				0.702357
				1.0228
				1.4869
				1.24754
				0.816759
				0.734931
				1.4809
				1.4855
				1.329
				0.724397
				1.00747
				0.936787
				1.48945
				0.781484
				1.49009
				1.46716
				1.48825
				1.41802
				0.98983
				1.47438
				1.04539
				1.48666
				1.12204
				1.48743
				1.001
				1.14212
				1.48561
				0.858598
				0.775926
				1.03193
				1.01622
				1.3639
				0.831319
				1.18147
				1.06167
				1.28617
				0.927649
				0.714695
				1.4813
				0.98097
				1.3996
				1.0229
				1.43523
				0.731893
				0.949272
				0.805027
				1.48609
				1.45733
				0.882729
				1.04896
				1.47703
				1.48509
				1.48368
				1.48547
				0.986213
				0.997498
				0.715342
				1.22684
				1.48423
				1.48058
				1.03909
				1.48264
				1.4824
				1.01213
				1.24769
				1.02646
				1.32365
				1.48058
				1.46825
				0.977433
				1.15529
				0.859182
				0.8192
				1.11479
				1.17034
				1.47826
				1.48515
				1.48471
				0.976048
				0.773572
				0.757396
				1.03833
				1.36335
				1.48383
				1.48379
				0.926551
				0.82982
				1.21253
				0.986956
				1.0713
				0.749851
				1.02952
				0.929623
				0.712844
				1.48223
				1.472
				1.00131
				1.40024
				1.2862
				1.47918
				1.48134
				1.45552
				1.01612
				1.43191
				1.02358
				0.910485
				1.47825
				1.02422
				1.2491
				0.972001
				1.48242
				1.48253
				0.983465
				1.32512
				1.03509
				1.46386
				1.4818
				1.48017
				1.15982
				1.47371
				0.997625
				0.979502
				1.48014
				1.47733
				1.02357
				1.01132
				1.47874
				0.878608
				1.47761
				1.1227
				0.84574
				1.17679
				0.742244
				0.817425
				0.743464
				1.46862
				1.47744
				0.754974
				1.07272
				0.804322
				1.357
				1.21931
				1.0258
				0.868534
				1.28744
				1.00546
				0.960636
				0.966292
				1.39869
				1.48155
				1.47414
				1.48129
				1.48098
				1.4503
				0.971663
				1.43008
				1.0238
				0.9118
				1.2498
				1.4798
				1.47931
				0.985369
				1.01182
				0.999132
				1.47861
				1.47098
				1.47633
				0.827276
				1.18367
				1.45978
				0.741832
				1.32155
				1.47387
				0.740229
				1.01863
				0.95458
				1.12946
				0.956081
				1.40839
				1.02568
				0.967791
				1.47824
				1.47825
				1.47967
				0.981966
				1.46472
				0.785509
				1.01736
				1.47785
				0.852719
				1.47606
				1.472
				0.995235
				0.867456
				1.23773
				1.00677
				1.07071
				1.47692
				1.47484
				1.4759
				1.35645
				0.802666
				1.28186
				1.47323
				0.967975
				1.44596
				1.46734
				0.924636
				1.38566
				0.943458
				0.929928
				0.779182
				1.4258
				0.955203
				0.735869
				1.0126
				1.47225
				0.767623
				1.47778
				1.47745
				0.968863
				1.00462
				1.4562
				1.47665
				1.18355
				0.981811
				0.993582
				1.47511
				1.32158
				1.47581
				1.02054
				1.12831
				1.46874
				1.46173
				1.40807
				0.969386
				1.47201
				1.07158
				1.24016
				0.938237
				0.999562
				0.852326
				0.782761
				0.950104
				0.903397
				1.28279
				0.964989
				1.00774
				1.46485
				1.47547
				1.35342
				1.47451
				0.834011
				0.863456
				0.978701
				0.766048
				1.01003
				0.999168
				1.4751
				0.753575
				1.4694
				0.989619
				1.44309
				1.47227
				0.921343
				1.47451
				1.47293
				1.38687
				1.47374
				1.42125
				0.763227
				1.17461
				1.46678
				0.923336
				1.45328
				1.22499
				0.981335
				0.935615
				1.31549
				1.46951
				0.950813
				1.47474
				1.05933
				0.994983
				1.1186
				1.47471
				1.47341
				0.963842
				0.985874
				0.975544
				1.45863
				1.4743
				1.47132
				0.84201
				0.982247
				1.47368
				0.812566
				1.4679
				0.754515
				1.27315
				0.746235
				0.884209
				0.904438
				1.46202
				1.35262
				0.917252
				0.831828
				0.930036
				1.44085
				1.01324
				0.942867
				1.38646
				0.994662
				0.943648
				1.4643
				0.96071
				1.41783
				1.47272
				0.960362
				0.98915
				1.47317
				1.47132
				0.971931
				1.46839
				0.981304
				1.17776
				0.79125
				1.47308
				1.45057
				1.46934
				1.47268
				1.47149
				1.22919
				1.31553
				1.47208
				1.0631
				1.1214
				0.908569
				0.792051
				1.46578
				0.744556
				1.45594
				0.921852
				0.920531
				1.27478
				0.938973
				0.981818
				1.47268
				0.945885
				1.47199
				1.42639
				0.976602
				0.808972
				1.45974
				0.770961
				0.956646
				1.47274
				0.967623
				1.47058
				0.883104
				1.34723
				0.938366
				1.03958
				1.47251
				0.861141
				1.46249
				1.4395
				1.46666
				0.964218
				1.46851
				1.47206
				1.38248
				0.905544
				0.915648
				1.21614
				1.40655
				0.971835
				0.930407
				0.864341
				1.16214
				1.44787
				0.784826
				1.46439
				0.778353
				0.978266
				0.756979
				0.951565
				1.47132
				1.47043
				1.30746
				1.10426
				1.26393
				0.971195
				1.47163
				0.962758
				1.46905
				1.45356
				1.4716
				1.47126
				1.4702
				1.46715
				1.47081
				0.888313
				1.46563
				0.836451
				0.899608
				1.4577
				1.42533
				0.763104
				0.95077
				0.915796
				0.939037
				1.34522
				1.04337
				0.913545
				1.4374
				1.46079
				0.960868
				0.982974
				0.932774
				1.47081
				0.857552
				1.47125
				1.4699
				0.953702
				0.83991
				0.94412
				1.46303
				0.761964
				1.47129
				1.21835
				1.46844
				1.37492
				1.47114
				1.44514
				1.16497
				0.810949
				0.881042
				1.47086
				1.10809
				1.40499
				1.30723
				0.894817
				1.4664
				0.749656
				1.26537
				0.909364
				0.919086
				1.45108
				0.9608
				0.92611
				1.46456
				0.956097
				1.46988
				1.03367
				0.938075
				1.4704
				1.46878
				0.94811
				1.45564
				0.862831
				1.47051
				0.831926
				1.42097
				1.46742
				0.790334
				1.47048
				0.794058
				1.45914
				1.43477
				0.746983
				1.33773
				0.960867
				1.47034
				1.46547
				0.911119
				1.09346
				1.46907
				1.46175
				0.874038
				1.46559
				0.894913
				0.884406
				0.983646
				0.889902
				1.20007
				0.942346
				1.2524
				0.90629
				0.864128
				1.37305
				1.44316
				0.938098
				1.14746
				1.46992
				1.46938
				0.919611
				1.4636
				0.80362
				0.929864
				1.47022
				1.46834
				1.2975
				0.772227
				1.47016
				1.39815
				1.44955
				1.46689
				1.47027
				1.46102
				1.46934
				0.881318
				0.774238
				0.848247
				1.03299
				0.933448
				1.45438
				0.898721
				1.46488
				0.853847
				0.939984
				0.857437
				0.912097
				1.45821
				1.4322
				1.41897
				0.784438
				1.46883
				1.33653
				1.46881
				0.932617
				1.09721
				0.92308
				1.46111
				0.755283
				1.46952
				0.933272
				0.960069
				1.46759
				0.877995
				1.46948
				1.20235
				1.46313
				1.01103
				1.25371
				1.4693
				1.46632
				1.44084
				1.15068
				1.46468
				1.29771
				0.828592
				1.45993
				0.848256
				1.36603
				0.836894
				0.887088
				0.86643
				0.759454
				1.44752
				0.896128
				0.756697
				0.801969
				0.876328
				1.39584
				1.46456
				0.890066
				0.883774
				1.46848
				1.46932
				1.45264
				1.06967
				0.840685
				1.46722
				1.46076
				1.4687
				1.45673
				1.46436
				1.46578
				1.45993
				0.814941
				1.43095
				0.862193
				1.41593
				1.46223
				1.32759
				1.13332
				0.852736
				0.741487
				0.895422
				1.23257
				0.898018
				0.869561
				0.928595
				1.01378
				0.98541
				0.833263
				1.18274
				0.891313
				0.87585
				1.43966
				1.28521
				0.883711
				1.4676
				1.46845
				0.763156
				1.46388
				1.36394
				1.46675
				1.4646
				1.44667
				0.786286
				1.46563
				0.720372
				0.841072
				1.39118
				1.45194
				1.0728
				0.877648
				0.847378
				1.45989
				0.868231
				1.45654
				0.838464
				0.849791
				0.861758
				1.46802
				1.46
				1.42909
				1.46725
				1.4623
				1.13649
				1.32594
				1.46483
				0.801734
				1.41558
				1.23476
				1.46624
				0.76139
				1.18534
				0.74488
				1.46395
				0.865812
				1.28467
				0.889307
				0.950206
				1.43837
				1.04638
				0.984411
				0.807299
				1.46508
				0.871282
				0.842074
				0.868278
				1.44518
				1.35745
				0.862135
				0.849107
				1.46712
				0.773024
				1.46672
				0.723826
				1.45056
				1.45976
				1.38953
				1.10133
				1.46647
				1.45531
				1.45897
				1.46154
				1.46364
				0.848844
				1.46517
				1.4292
				0.779851
				1.16634
				0.830764
				1.21207
				1.31471
				1.41343
				0.853224
				1.25792
				0.727164
				0.846252
				0.725766
				1.46264
				1.05045
				1.46663
				1.43704
				0.850231
				0.941448
				1.00915
				0.912273
				1.4659
				0.838689
				1.4446
				1.35544
				0.832759
				0.798911
				1.45029
				1.46495
				0.846309
				0.709685
				1.4567
				1.10449
				0.752911
				1.4559
				1.46387
				0.839954
				1.38643
				1.45992
				1.46228
				1.4619
				1.42582
				1.16788
				1.31382
				1.21312
				1.46206
				0.816058
				1.2624
				1.41531
				0.821322
				0.74713
				0.703609
				1.43465
				1.45827
				1.07779
				1.46483
				0.871391
				1.00473
				0.957115
				1.44332
				0.898373
				1.44973
				1.35023
				0.762913
				0.745229
				1.45449
				0.724618
				1.46326
				1.45903
				1.13203
				1.46167
				0.843715
				0.799291
				0.83995
				1.46234
				1.38445
				1.19686
				1.30698
				1.26185
				1.46439
				1.43387
				0.839373
				1.41217
				0.697418
				0.732469
				1.07956
				0.833936
				0.853521
				1.44394
				1.45576
				1.00379
				0.936082
				0.916504
				1.34755
				1.44892
				0.778166
				0.857609
				1.12897
				0.715889
				1.4613
				1.19787
				1.46141
				1.45494
				1.30383
				1.26054
				0.840716
				1.45665
				1.46378
				1.43194
				0.696709
				1.04707
				1.38343
				0.79998
				1.44308
				1.11539
				1.41452
				1.33945
				1.20528
				0.717947
				0.789802
				0.95121
				0.761528
				0.884332
				1.28193
				1.4353
				1.4486
			</DataArray>
			<DataArray type="Float64" Name="mach-number" Format="ascii">
				0.467764
				1.3413
				1.4465
				1.15388
				0.853062
				1.74022
				0.450783
				1.72386
				0.880755
				1.47426
				1.18676
				1.41793
				0.824094
				1.12421
				0.534414
				1.70595
				1.50346
				0.793064
				0.908623
				0.58787
				1.20454
				1.67724
				1.38761
				1.53473
				1.09261
				0.759302
				0.634856
				1.64251
				1.56844
				0.721516
				0.679341
				1.60469
				0.93758
				1.23772
				1.35611
				1.06168
				0.967492
				1.26667
				1.3253
				1.03007
				0.998257
				1.29704
				0.682583
				0.431657
				1.73783
				0.860767
				0.505599
				1.44306
				1.47107
				1.72405
				0.833227
				0.561487
				1.70554
				0.76685
				1.50051
				0.803951
				0.610991
				1.14789
				1.67629
				1.53211
				0.887714
				0.772309
				0.655848
				1.64111
				1.17285
				1.41435
				1.56617
				0.737519
				0.698645
				1.60286
				1.11508
				0.518094
				0.914964
				1.19989
				1.38427
				1.08688
				0.49721
				0.942897
				1.23063
				1.35274
				1.0585
				1.7305
				0.971297
				1.2608
				1.3208
				1.02983
				0.498104
				0.484795
				1.00046
				1.29019
				1.46288
				1.71356
				0.828612
				0.552052
				1.68978
				1.49157
				0.79867
				0.756674
				0.856677
				0.601966
				1.66042
				1.52208
				0.766207
				0.648259
				1.62617
				1.55476
				1.43519
				0.730524
				0.691106
				1.58978
				0.95908
				1.14936
				0.513383
				0.8839
				1.4069
				1.17259
				1.11675
				1.71392
				0.911411
				1.37754
				1.19899
				0.528857
				0.500449
				1.08738
				1.68902
				1.45903
				0.783533
				0.807994
				0.550694
				0.836159
				0.939567
				0.578848
				1.34686
				1.22793
				1.65888
				1.05797
				1.48807
				0.968465
				0.777547
				1.31561
				1.25722
				1.02829
				0.624375
				1.43102
				1.62415
				0.998199
				1.28537
				1.51886
				0.744396
				0.668044
				1.58738
				1.55198
				0.708006
				1.09656
				0.536954
				0.531669
				0.862858
				1.40243
				0.82029
				1.70375
				1.13414
				1.1116
				0.539668
				1.67156
				0.806805
				0.800546
				1.44929
				0.529855
				0.579289
				0.889218
				1.63988
				1.37281
				1.16822
				1.47745
				0.769743
				1.08142
				0.621941
				1.60669
				1.50699
				0.543757
				0.736437
				0.662518
				1.57221
				1.53866
				0.700645
				0.915974
				1.34253
				1.19093
				1.05473
				0.829033
				0.942915
				1.31162
				1.2213
				0.896978
				1.47401
				1.02667
				0.97078
				1.28038
				1.24901
				0.998903
				1.42177
				0.546373
				0.822262
				0.575518
				1.67147
				0.535787
				0.565219
				0.564665
				1.63874
				0.856138
				0.780034
				0.601407
				1.44574
				1.60491
				0.541152
				0.558545
				1.39364
				1.47401
				0.749019
				0.642246
				1.57003
				1.13491
				1.50403
				0.715736
				0.680167
				1.53608
				1.11261
				0.808635
				0.883131
				0.840431
				1.41785
				1.36458
				1.16706
				1.55564
				1.08109
				0.910095
				1.3352
				1.18866
				1.05304
				0.836736
				1.09171
				0.559799
				0.937656
				1.30526
				1.21754
				1.02383
				1.6574
				0.966181
				0.835098
				1.2747
				1.24392
				0.994943
				0.568764
				0.562932
				0.570088
				1.6205
				1.38943
				0.567277
				0.60434
				1.58703
				0.772222
				1.46283
				0.741711
				0.640664
				1.55424
				1.49162
				0.709405
				0.558996
				0.675705
				1.52216
				1.43629
				0.870706
				0.861033
				1.09586
				1.35999
				0.849281
				1.65814
				1.13038
				0.594469
				0.800495
				1.07976
				0.586196
				0.580546
				1.21116
				0.573728
				1.40927
				0.887272
				1.62025
				1.32994
				1.1574
				1.04938
				0.578572
				0.589158
				1.5859
				0.91301
				1.3004
				0.624557
				1.18151
				1.55253
				1.02202
				0.753152
				0.936787
				1.45984
				1.43258
				0.723059
				0.571398
				0.658582
				1.52002
				0.940021
				1.27054
				1.48897
				1.20804
				0.691403
				0.994001
				0.967291
				0.826644
				1.23919
				0.867095
				1.38181
				0.861082
				0.781332
				1.65121
				0.588649
				1.40628
				0.585606
				0.85362
				1.09504
				1.60598
				0.587134
				1.00743
				1.35299
				0.598205
				0.582673
				1.56936
				1.1283
				1.46565
				1.07802
				0.628512
				1.53683
				1.44823
				0.806928
				0.718785
				0.658881
				1.50591
				1.476
				0.688863
				0.879725
				0.885464
				1.32291
				1.15457
				0.589857
				1.04678
				1.37802
				0.873575
				0.747464
				0.906282
				1.29383
				1.17787
				1.01824
				0.933959
				1.26463
				0.60943
				1.20307
				0.989284
				1.42137
				0.60275
				0.96153
				1.23399
				0.597747
				0.595038
				1.6067
				0.83149
				0.595894
				0.913802
				1.34941
				1.56922
				0.596422
				0.773978
				0.618182
				1.536
				0.594754
				0.645822
				1.51822
				1.50447
				1.4
				1.44555
				0.702778
				0.674294
				1.47419
				1.16748
				0.889495
				0.882897
				1.08855
				0.731196
				0.857884
				1.06637
				1.31871
				1.41899
				0.594056
				1.11808
				0.600962
				0.604292
				1.05176
				0.798291
				0.600498
				0.882391
				1.28815
				1.37063
				1.59958
				1.14601
				1.01694
				0.944995
				0.909077
				0.757559
				0.604498
				1.25931
				1.1671
				0.988971
				1.55692
				0.935752
				1.22977
				1.19913
				0.961181
				0.626229
				1.3954
				1.52262
				0.895193
				0.90548
				0.611309
				0.650217
				0.823899
				1.49194
				0.702412
				0.675354
				1.4633
				1.43455
				0.602008
				1.34644
				1.59376
				1.25925
				0.621884
				0.607953
				0.611657
				0.781112
				0.616313
				0.608084
				0.608633
				1.00796
				1.36822
				1.08303
				0.849332
				1.06111
				0.728682
				1.31563
				1.55766
				0.928175
				1.4118
				1.11797
				1.04731
				0.9032
				1.52279
				0.621864
				0.909726
				0.611622
				0.803327
				0.875215
				0.640833
				1.28343
				1.14129
				1.49157
				1.0128
				0.663892
				0.613097
				1.46208
				1.34118
				0.688644
				1.43368
				0.902894
				1.25471
				1.16368
				0.983609
				0.757214
				0.928789
				1.22516
				1.19548
				0.955465
				0.61353
				1.59689
				0.611712
				0.612837
				0.61711
				1.38236
				1.07022
				0.614493
				0.714987
				0.828427
				1.43795
				1.40812
				1.31184
				0.943002
				0.613633
				1.55069
				0.916107
				0.770949
				0.925607
				1.51293
				1.36597
				0.629999
				1.04549
				0.645402
				1.48102
				1.07256
				0.852111
				0.619426
				0.665775
				1.4518
				0.740916
				1.27891
				0.620194
				0.624913
				0.618403
				0.631989
				0.623559
				0.689579
				0.627461
				1.38065
				1.10594
				0.964115
				1.02116
				0.620869
				0.80261
				1.42838
				0.878568
				1.55248
				0.618548
				1.24873
				1.12968
				0.983189
				1.32872
				0.905705
				1.21924
				1.16163
				0.956485
				0.923391
				1.19389
				0.928297
				1.19062
				0.946831
				1.47799
				0.929641
				0.625845
				1.51323
				0.719644
				0.816799
				0.779306
				1.48161
				0.639825
				0.656802
				1.30765
				1.39532
				1.45144
				0.624422
				1.33468
				0.677276
				0.623702
				0.628146
				0.630337
				0.624898
				1.42524
				0.991657
				0.626517
				1.03918
				1.07146
				0.845924
				1.55102
				0.9372
				0.733901
				1.27541
				0.962656
				0.628256
				0.946301
				1.09312
				1.38012
				1.01442
				0.703505
				0.873151
				1.50412
				1.26424
				1.2471
				1.13018
				0.976999
				1.5351
				1.39443
				0.63009
				0.897946
				1.21766
				1.16209
				0.949579
				1.47542
				0.921221
				1.18598
				0.648669
				0.630324
				0.65692
				1.44062
				1.03997
				0.629151
				0.820599
				0.640194
				0.633199
				0.636488
				1.28607
				0.63158
				0.980339
				0.641867
				0.632315
				0.774381
				0.943704
				0.949461
				0.68367
				0.965523
				1.33199
				1.50587
				0.744692
				1.41042
				1.05006
				0.632522
				1.34366
				1.01143
				1.47374
				0.849109
				0.632534
				1.0879
				0.634284
				1.54045
				1.08091
				1.24125
				1.39614
				1.44211
				0.633666
				0.636991
				0.668898
				0.641003
				0.69691
				0.986458
				0.993399
				0.637466
				0.957817
				0.87656
				1.21121
				1.12772
				1.38915
				0.949451
				0.645907
				0.966369
				0.897578
				0.981698
				1.17825
				1.15426
				0.921239
				1.40907
				0.636714
				0.813712
				1.28217
				1.50413
				0.641131
				0.636899
				0.638837
				1.46107
				1.00529
				0.785896
				0.638161
				0.641212
				0.646894
				1.16637
				0.643874
				1.04363
				1.288
				0.963549
				1.44395
				1.50998
				0.968913
				0.64352
				0.738659
				0.997889
				0.641625
				1.4279
				0.706304
				0.845841
				1.00747
				0.983668
				0.67115
				1.23197
				1.33932
				1.37001
				0.65722
				0.97896
				0.643538
				0.864839
				1.20786
				1.12625
				0.945006
				0.89479
				1.17795
				1.14374
				0.907758
				1.46422
				0.640209
				0.639831
				0.641983
				1.39797
				1.02541
				0.644321
				0.642647
				0.977872
				0.644465
				0.823633
				1.01149
				0.985864
				0.726169
				0.999947
				1.22371
				1.23037
				0.666849
				1.41163
				1.51008
				1.33488
				0.652709
				0.646807
				1.46524
				1.01478
				1.03351
				0.778506
				1.08131
				0.657398
				1.28344
				0.644395
				1.05292
				0.643771
				0.645956
				1.46581
				0.973873
				0.646947
				1.0981
				0.753547
				1.02227
				0.8683
				0.647745
				0.652378
				0.646324
				0.983097
				0.699847
				0.649871
				0.987998
				1.18646
				0.685415
				1.29081
				0.933626
				1.36586
				1.00151
				1.01471
				1.50917
				1.13437
				0.652232
				0.905558
				1.31761
				1.46876
				0.65509
				0.649977
				0.819508
				1.47484
				1.09123
				1.22825
				0.646741
				1.40971
				0.647369
				0.674665
				0.648481
				0.729723
				0.998058
				0.66709
				1.03415
				0.650254
				1.02909
				0.650286
				1.00536
				1.00714
				0.653068
				1.31759
				1.41948
				1.02862
				1.01821
				0.790207
				1.35131
				0.968699
				1.09176
				0.861437
				1.24229
				1.4913
				0.654683
				1.18052
				0.744132
				1.13416
				0.712437
				1.46635
				1.15164
				1.35285
				0.65025
				0.681454
				1.28526
				1.04498
				0.663992
				0.650538
				0.654773
				0.651508
				1.0032
				1.00748
				1.48907
				0.925923
				0.652955
				0.656943
				1.04003
				0.653174
				0.654856
				1.0199
				0.900014
				1.03239
				0.830323
				0.655566
				0.66967
				1.18674
				0.997193
				1.31289
				1.36917
				1.03653
				0.981397
				0.661701
				0.652028
				0.65235
				1.01988
				1.41684
				1.44359
				1.06255
				0.784892
				0.653847
				0.653548
				1.1972
				1.35176
				0.941914