<VTKFile type="UnstructuredGrid" version="0.1" byte_order="LittleEndian">
<UnstructuredGrid>
	<Piece NumberOfPoints="80" NumberOfCells="128">
		<CellData Scalars="density" Vectors="velocity">
			<DataArray type="Float64" Name="density" Format="ascii">
				1.02384
				1.01001
				0.978883
				0.997789
				0.897099
				0.95623
				0.820265
				0.898246
				0.83308
				0.884879
				0.924211
				0.938417
				1.01705
				1.00883
				1.07076
				1.06029
				1.07076
				1.07907
				1.01705
				1.06029
				0.924211
				1.00883
				0.833081
				0.938417
				0.820266
				0.88488
				0.897099
				0.898247
				0.978884
				0.956231
				1.02384
				0.997789
				1.00572
				1.01707
				1.00376
				1.01678
				0.992765
				1.0004
				0.983501
				0.976132
				0.984706
				0.962818
				0.995502
				0.973367
				1.00736
				0.995942
				1.01422
				1.01419
				1.01422
				1.02083
				1.00736
				1.01419
				0.995502
				0.995942
				0.984707
				0.973368
				0.983501
				0.962818
				0.992765
				0.976132
				1.00376
				1.0004
				1.00572
				1.01678
				0.999497
				0.995643
				1.00094
				0.999094
				0.997371
				0.999818
				0.995362
				0.998901
				0.99625
				0.998465
				0.999414
				0.99933
				1.00259
				1.00091
				1.00435
				1.00215
				1.00435
				1.0026
				1.00259
				1.00215
				0.999414
				1.00091
				0.99625
				0.99933
				0.995362
				0.998465
				0.997371
				0.998901
				1.00094
				0.999818
				0.999497
				0.999094
				0.998835
				0.997642
				1.00003
				0.999943
				0.999941
				0.999672
				0.999964
				0.999588
				1.00014
				0.999765
				1.00039
				1.00017
				1.00061
				1.00062
				1.00072
				1.00093
				1.00072
				1.00104
				1.00061
				1.00093
				1.00039
				1.00062
				1.00014
				1.00017
				0.999964
				0.999765
				0.999941
				0.999588
				1.00003
				0.999672
				0.998835
				0.999943
			</DataArray>
			<DataArray type="Float64" Name="mach-number" Format="ascii">
				0.144909
				0.167628
				0.344453
				0.26671
				0.557425
				0.430343
				0.722436
				0.573777
				0.709958
				0.622282
				0.543706
				0.546232
				0.339159
				0.407329
				0.145775
				0.260215
				0.145775
				0.180782
				0.339158
				0.260214
				0.543704
				0.407329
				0.709956
				0.546231
				0.722433
				0.62228
				0.557423
				0.573776
				0.344452
				0.430342
				0.144908
				0.26671
				0.315439
				0.269268
				0.356883
				0.31372
				0.3912
				0.372673
				0.419922
				0.429289
				0.420732
				0.458763
				0.392865
				0.434095
				0.35846
				0.374943
				0.336947
				0.320045
				0.336947
				0.298177
				0.35846
				0.320044
				0.392865
				0.374942
				0.420732
				0.434095
				0.419922
				0.458762
				0.391199
				0.429289
				0.356883
				0.372673
				0.315439
				0.31372
				0.354579
				0.358081
				0.376251
				0.372868
				0.385205
				0.381351
				0.391873
				0.385495
				0.390138
				0.386261
				0.381851
				0.383024
				0.373268
				0.378309
				0.368427
				0.374783
				0.368427
				0.373549
				0.373268
				0.374782
				0.381851
				0.378308
				0.390138
				0.383023
				0.391873
				0.386261
				0.385205
				0.385494
				0.376251
				0.381351
				0.354579
				0.372868
				0.377092
				0.370725
				0.380809
				0.379234
				0.381144
				0.381615
				0.380972
				0.381954
				0.380507
				0.381566
				0.379879
				0.38056
				0.379335
				0.379399
				0.379044
				0.37858
				0.379044
				0.3783
				0.379335
				0.37858
				0.379879
				0.379399
				0.380507
				0.38056
				0.380972
				0.381566
				0.381144
				0.381954
				0.380809
				0.381615
				0.377092
				0.379234
			</DataArray>
			<DataArray type="Float64" Name="pressure" Format="ascii">
				5.18233
				5.09129
				4.85784
				4.98882
				4.28966
				4.6802
				3.76879
				4.28638
				3.83734
				4.19146
				4.42671
				4.52998
				5.05657
				4.99918
				5.43888
				5.35336
				5.43888
				5.48136
				5.05658
				5.35337
				4.42671
				4.99918
				3.83735
				4.52998
				3.7688
				4.19146
				4.28967
				4.28638
				4.85784
				4.68021
				5.18234
				4.98882
				5.02649
				5.11601
				4.98586
				5.08539
				4.90475
				4.9608
				4.83626
				4.7945
				4.84215
				4.70233
				4.9167
				4.77128
				4.99866
				4.92566
				5.04593
				5.05252
				5.04593
				5.09844
				4.99866
				5.05252
				4.9167
				4.92566
				4.84215
				4.77128
				4.83626
				4.70234
				4.90475
				4.7945
				4.98586
				4.9608
				5.02649
				5.08539
				4.96634
				4.94398
				4.95432
				4.94711
				4.92939
				4.94473
				4.91465
				4.93782
				4.9206
				4.93509
				4.94248
				4.94144
				4.96439
				4.95253
				4.97656
				4.96123
				4.97656
				4.96432
				4.96439
				4.96123
				4.94248
				4.95253
				4.9206
				4.94144
				4.91465
				4.93509
				4.92939
				4.93782
				4.95433
				4.94474
				4.96634
				4.94711
				4.94442
				4.9446
				4.94605
				4.94679
				4.94583
				4.94392
				4.94607
				4.9434
				4.94728
				4.94466
				4.94905
				4.94747
				4.95053
				4.95061
				4.95129
				4.95275
				4.95129
				4.95347
				4.95053
				4.95275
				4.94905
				4.95061
				4.94728
				4.94747
				4.94607
				4.94466
				4.94583
				4.9434
				4.94605
				4.94392
				4.94442
				4.94679
			</DataArray>
			<DataArray type="Float64" Name="velocity" NumberOfComponents="3" Format="ascii">
				0.320649 -0.21445 0
				0.445309 -1.78228e-06 0
				0.716911 -0.557107 0
				0.634443 -0.308885 0
				1.31211 -0.598721 0
				1.0237 -0.470133 0
				1.81814 -0.226999 0
				1.43455 -0.376156 0
				1.76432 0.370903 0
				1.60248 -0.000508385 0
				1.22365 0.69639 0
				1.36814 0.38031 0
				0.650787 0.614113 0
				0.952926 0.49295 0
				0.305964 0.239796 0
				0.610307 0.325807 0
				0.305964 -0.239794 0
				0.482102 9.13513e-07 0
				0.650786 -0.614111 0
				0.610306 -0.325805 0
				1.22365 -0.696388 0
				0.952925 -0.492948 0
				1.76432 -0.370902 0
				1.36813 -0.380309 0
				1.81814 0.226999 0
				1.60247 0.000508073 0
				1.3121 0.598719 0
				1.43455 0.376154 0
				0.716909 0.557104 0
				1.0237 0.470131 0
				0.320648 0.214446 0
				0.634442 0.308882 0
				0.833373 -0.0413773 0
				0.71456 -6.9157e-07 0
				0.937574 -0.0816156 0
				0.822806 -0.110165 0
				1.02494 -0.0895416 0
				0.96807 -0.164421 0
				1.10139 -0.0298682 0
				1.11805 -0.131176 0
				1.10204 0.0643783 0
				1.19953 0.013142 0
				1.02648 0.116324 0
				1.12529 0.164005 0
				0.939501 0.0999095 0
				0.96566 0.202223 0
				0.888453 0.0380078 0
				0.835357 0.128729 0
				0.888453 -0.0380068 0
				0.788459 6.56557e-07 0
				0.9395 -0.0999085 0
				0.835357 -0.128728 0
				1.02648 -0.116323 0
				0.965659 -0.202222 0
				1.10203 -0.064378 0
				1.12529 -0.164004 0
				1.10139 0.0298678 0
				1.19953 -0.0131421 0
				1.02493 0.0895407 0
				1.11805 0.131175 0
				0.937573 0.0816145 0
				0.968069 0.16442 0
				0.833372 0.0413762 0
				0.822805 0.110163 0
				0.935099 -0.0138194 0
				0.944131 -3.45385e-07 0
				0.990247 -0.0196508 0
				0.981672 -0.0105782 0
				1.01308 -0.0194107 0
				1.00342 -0.00878151 0
				1.0303 -0.00130537 0
				1.01411 -0.00331117 0
				1.02568 0.0215704 0
				1.01605 0.00755925 0
				1.00424 0.0318474 0
				1.00765 0.0154119 0
				0.982447 0.0256462 0
				0.995573 0.0156134 0
				0.970323 0.00950964 0
				0.986623 0.00930259 0
				0.970323 -0.0095091 0
				0.983508 1.85919e-07 0
				0.982446 -0.0256457 0
				0.986623 -0.00930224 0
				1.00424 -0.031847 0
				0.995572 -0.0156131 0
				1.02568 -0.0215703 0
				1.00765 -0.0154118 0
				1.0303 0.00130517 0
				1.01605 -0.00755933 0
				1.01308 0.0194102 0
				1.01411 0.00331087 0
				0.990247 0.0196501 0
				1.00342 0.00878102 0
				0.935099 0.0138186 0
				0.981672 0.0105777 0
				0.992705 -0.00306446 0
				0.976549 -9.40902e-08 0
				1.00206 -0.00162799 0
				0.998026 -0.00436256 0
				1.00296 -0.000538374 0
				1.00414 -0.00184141 0
				1.00252 0.000715409 0
				1.00503 0.000247919 0
				1.00133 0.00176156 0
				1.00404 0.00253154 0
				0.999732 0.00213361 0
				1.00147 0.00394236 0
				0.998344 0.00164006 0
				0.998507 0.0037663 0
				0.9976 0.000600961 0
				0.996418 0.00220227 0
				0.9976 -0.000600883 0
				0.995703 6.86122e-08 0
				0.998344 -0.00164 0
				0.996418 -0.00220214 0
				0.999732 -0.0021336 0
				0.998507 -0.00376622 0
				1.00133 -0.0017616 0
				1.00147 -0.00394234 0
				1.00252 -0.000715504 0
				1.00404 -0.00253161 0
				1.00296 0.000538243 0
				1.00503 -0.000248073 0
				1.00206 0.00162786 0
				1.00414 0.0018412 0
				0.992705 0.00306434 0
				0.998026 0.00436237 0
			</DataArray>
		</CellData>
		<Points>
		<DataArray type="Float64" NumberOfComponents="3" Format="ascii">
			0.5 0 0
			0.46194 0.191342 0
			0.353553 0.353553 0
			0.191342 0.46194 0
			-2.18557e-08 0.5 0
			-0.191342 0.46194 0
			-0.353553 0.353553 0
			-0.46194 0.191342 0
			-0.5 -4.37114e-08 0
			-0.46194 -0.191342 0
			-0.353553 -0.353553 0
			-0.191342 -0.46194 0
			6.55671e-08 -0.5 0
			0.191342 -0.46194 0
			0.353553 -0.353553 0
			0.46194 -0.191342 0
			0.884503 0.175939 0
			0.749846 0.501031 0
			0.501031 0.749846 0
			0.175939 0.884503 0
			-0.175939 0.884503 0
			-0.501031 0.749846 0
			-0.749846 0.501031 0
			-0.884503 0.175939 0
			-0.884503 -0.175939 0
			-0.749846 -0.501031 0
			-0.501031 -0.749846 0
			-0.175939 -0.884503 0
			0.175939 -0.884503 0
			0.501031 -0.749846 0
			0.749846 -0.501031 0
			0.884503 -0.175938 0
			2.20148 0 0
			2.0339 0.842468 0
			1.55668 1.55668 0
			0.842468 2.0339 0
			-9.62295e-08 2.20148 0
			-0.842468 2.0339 0
			-1.55668 1.55668 0
			-2.0339 0.842468 0
			-2.20148 -1.92459e-07 0
			-2.0339 -0.842468 0
			-1.55668 -1.55668 0
			-0.842468 -2.0339 0
			2.88689e-07 -2.20148 0
			0.842468 -2.0339 0
			1.55668 -1.55668 0
			2.0339 -0.842468 0
			6.28184 1.24954 0
			5.32549 3.55838 0
			3.55838 5.32549 0
			1.24954 6.28184 0
			-1.24954 6.28184 0
			-3.55838 5.32549 0
			-5.32549 3.55838 0
			-6.28184 1.24954 0
			-6.28184 -1.24954 0
			-5.32549 -3.55838 0
			-3.55838 -5.32549 0
			-1.24954 -6.28184 0
			1.24954 -6.28184 0
			3.55838 -5.32549 0
			5.32549 -3.55838 0
			6.28184 -1.24953 0
			20.0001 0 0
			18.4777 7.6537 0
			14.1422 14.1422 0
			7.6537 18.4777 0
			-8.74231e-07 20.0001 0
			-7.6537 18.4777 0
			-14.1422 14.1422 0
			-18.4777 7.65369 0
			-20.0001 -1.74846e-06 0
			-18.4777 -7.6537 0
			-14.1422 -14.1422 0
			-7.65369 -18.4777 0
			2.62269e-06 -20.0001 0
			7.6537 -18.4777 0
			14.1422 -14.1422 0
			18.4777 -7.65369 0
		</DataArray>
		</Points>
		<Cells>
			<DataArray type="UInt32" Name="connectivity" Format="ascii">
				0 16 1
				0 31 16
				1 17 2
				1 16 17
				2 18 3
				2 17 18
				3 19 4
				3 18 19
				4 20 5
				4 19 20
				5 21 6
				5 20 21
				6 22 7
				6 21 22
				7 23 8
				7 22 23
				8 24 9
				8 23 24
				9 25 10
				9 24 25
				10 26 11
				10 25 26
				11 27 12
				11 26 27
				12 28 13
				12 27 28
				13 29 14
				13 28 29
				14 30 15
				14 29 30
				15 31 0
				15 30 31
				16 32 33
				16 31 32
				17 33 34
				17 16 33
				18 34 35
				18 17 34
				19 35 36
				19 18 35
				20 36 37
				20 19 36
				21 37 38
				21 20 37
				22 38 39
				22 21 38
				23 39 40
				23 22 39
				24 40 41
				24 23 40
				25 41 42
				25 24 41
				26 42 43
				26 25 42
				27 43 44
				27 26 43
				28 44 45
				28 27 44
				29 45 46
				29 28 45
				30 46 47
				30 29 46
				31 47 32
				31 30 47
				32 48 33
				32 63 48
				33 49 34
				33 48 49
				34 50 35
				34 49 50
				35 51 36
				35 50 51
				36 52 37
				36 51 52
				37 53 38
				37 52 53
				38 54 39
				38 53 54
				39 55 40
				39 54 55
				40 56 41
				40 55 56
				41 57 42
				41 56 57
				42 58 43
				42 57 58
				43 59 44
				43 58 59
				44 60 45
				44 59 60
				45 61 46
				45 60 61
				46 62 47
				46 61 62
				47 63 32
				47 62 63
				48 64 65
				48 63 64
				49 65 66
				49 48 65
				50 66 67
				50 49 66
				51 67 68
				51 50 67
				52 68 69
				52 51 68
				53 69 70
				53 52 69
				54 70 71
				54 53 70
				55 71 72
				55 54 71
				56 72 73
				56 55 72
				57 73 74
				57 56 73
				58 74 75
				58 57 74
				59 75 76
				59 58 75
				60 76 77
				60 59 76
				61 77 78
				61 60 77
				62 78 79
				62 61 78
				63 79 64
				63 62 79
			</DataArray>
			<DataArray type="UInt32" Name="offsets" Format="ascii">
				3
				6
				9
				12
				15
				18
				21
				24
				27
				30
				33
				36
				39
				42
				45
				48
				51
				54
				57
				60
				63
				66
				69
				72
				75
				78
				81
				84
				87
				90
				93
				96
				99
				102
				105
				108
				111
				114
				117
				120
				123
				126
				129
				132
				135
				138
				141
				144
				147
				150
				153
				156
				159
				162
				165
				168
				171
				174
				177
				180
				183
				186
				189
				192
				195
				198
				201
				204
				207
				210
				213
				216
				219
				222
				225
				228
				231
				234
				237
				240
				243
				246
				249
				252
				255
				258
				261
				264
				267
				270
				273
				276
				279
				282
				285
				288
				291
				294
				297
				300
				303
				306
				309
				312
				315
				318
				321
				324
				327
				330
				333
				336
				339
				342
				345
				348
				351
				354
				357
				360
				363
				366
				369
				372
				375
				378
				381
				384
			</DataArray>
			<DataArray type="Int32" Name="types" Format="ascii">
				5
				5
				5
				5
				5
				5
				5
				5
				5
				5
				5
				5
				5
				5
				5
				5
				5
				5
				5
				5
				5
				5
				5
				5
				5
				5
				5
				5
				5
				5
				5
				5
				5
				5
				5
				5
				5
				5
				5
				5
				5
				5
				5
				5
				5
				5
				5
				5
				5
				5
				5
				5
				5
				5
				5
				5
				5
				5
				5
				5
				5
				5
				5
				5
				5
				5
				5
				5
				5
				5
				5
				5
				5
				5
				5
				5
				5
				5
				5
				5
				5
				5
				5
				5
				5
				5
				5
				5
				5
				5
				5
				5
				5
				5
				5
				5
				5
				5
				5
				5
				5
				5
				5
				5
				5
				5
				5
				5
				5
				5
				5
				5
				5
				5
				5
				5
				5
				5
				5
				5
				5
				5
				5
				5
				5
				5
				5
				5
			</DataArray>
		</Cells>
	</Piece>
</UnstructuredGrid>
</VTKFile>