<VTKFile type="UnstructuredGrid" version="0.1" byte_order="LittleEndian">
<UnstructuredGrid>
	<Piece NumberOfPoints="80" NumberOfCells="128">
		<CellData Scalars="density" Vectors="velocity">
			<DataArray type="Float64" Name="density" Format="ascii">
				0.885347
				0.895934
				0.883938
				0.899478
				0.880121
				0.905151
				0.889965
				0.914016
				0.932828
				0.94028
				1.00024
				0.988736
				1.06298
				1.04338
				1.09884
				1.08429
				1.09884
				1.09923
				1.06298
				1.08429
				1.00024
				1.04338
				0.932828
				0.988736
				0.889965
				0.94028
				0.880121
				0.914016
				0.883938
				0.905151
				0.885347
				0.899478
				0.960255
				0.948892
				0.968943
				0.953683
				0.975115
				0.960258
				0.980995
				0.964934
				0.99314
				0.975285
				1.00993
				0.994165
				1.02478
				1.01459
				1.03303
				1.02887
				1.03303
				1.03381
				1.02478
				1.02887
				1.00993
				1.01459
				0.99314
				0.994165
				0.980995
				0.975285
				0.975115
				0.964934
				0.968943
				0.960258
				0.960255
				0.953683
				0.978536
				0.982693
				0.985608
				0.986911
				0.990854
				0.992637
				0.99462
				0.995781
				0.999488
				0.999101
				1.00488
				1.00352
				1.00902
				1.00773
				1.0111
				1.0105
				1.0111
				1.01143
				1.00902
				1.0105
				1.00488
				1.00773
				0.999488
				1.00352
				0.99462
				0.999101
				0.990854
				0.995781
				0.985608
				0.992637
				0.978536
				0.986911
				0.993787
				0.990724
				0.99687
				0.993402
				0.999113
				0.997092
				1.00063
				0.999225
				1.00209
				1.00094
				1.00338
				1.00257
				1.00424
				1.0038
				1.00465
				1.00449
				1.00465
				1.0047
				1.00424
				1.00449
				1.00338
				1.0038
				1.00209
				1.00257
				1.00063
				1.00094
				0.999113
				0.999225
				0.99687
				0.997092
				0.993787
				0.993402
			</DataArray>
			<DataArray type="Float64" Name="mach-number" Format="ascii">
				0.0971175
				0.146478
				0.235121
				0.214118
				0.372482
				0.333998
				0.459985
				0.431839
				0.458257
				0.465342
				0.374396
				0.422955
				0.244204
				0.329548
				0.10194
				0.223556
				0.10194
				0.167311
				0.244204
				0.223556
				0.374396
				0.329548
				0.458257
				0.422955
				0.459985
				0.465342
				0.372482
				0.431839
				0.235121
				0.333998
				0.0971173
				0.214118
				0.280927
				0.226486
				0.333484
				0.267899
				0.384984
				0.343543
				0.409193
				0.398703
				0.400596
				0.412509
				0.367967
				0.384047
				0.330486
				0.330586
				0.30644
				0.278796
				0.30644
				0.25671
				0.330486
				0.278796
				0.367967
				0.330586
				0.400596
				0.384047
				0.409193
				0.412509
				0.384984
				0.398703
				0.333484
				0.343543
				0.280927
				0.267899
				0.327866
				0.340697
				0.357946
				0.355445
				0.382361
				0.377623
				0.389799
				0.388005
				0.383176
				0.386986
				0.368907
				0.378613
				0.35497
				0.368469
				0.346923
				0.36116
				0.346923
				0.358608
				0.35497
				0.36116
				0.368907
				0.368469
				0.383176
				0.378613
				0.389799
				0.386986
				0.382361
				0.388005
				0.357946
				0.377623
				0.327866
				0.355445
				0.371463
				0.36265
				0.378801
				0.370265
				0.383073
				0.380577
				0.383074
				0.383955
				0.380814
				0.382359
				0.377962
				0.378549
				0.37573
				0.374726
				0.374592
				0.372205
				0.374592
				0.371357
				0.37573
				0.372205
				0.377962
				0.374726
				0.380814
				0.378549
				0.383074
				0.382359
				0.383073
				0.383955
				0.378801
				0.380577
				0.371463
				0.370264
			</DataArray>
			<DataArray type="Float64" Name="pressure" Format="ascii">
				4.50653
				4.56748
				4.42698
				4.5454
				4.32589
				4.49715
				4.33787
				4.49048
				4.59588
				4.63365
				5.04935
				4.95355
				5.49678
				5.3326
				5.76343
				5.62224
				5.76343
				5.7286
				5.49678
				5.62224
				5.04935
				5.3326
				4.59588
				4.95355
				4.33787
				4.63365
				4.32589
				4.49048
				4.42698
				4.49715
				4.50653
				4.5454
				4.85266
				4.81347
				4.84568
				4.80255
				4.83585
				4.77716
				4.85442
				4.76797
				4.93031
				4.82175
				5.04344
				4.94725
				5.14496
				5.09112
				5.20148
				5.19498
				5.20148
				5.23155
				5.14496
				5.19498
				5.04344
				5.09112
				4.93031
				4.94725
				4.85442
				4.82175
				4.83585
				4.76797
				4.84568
				4.77716
				4.85266
				4.80255
				4.89094
				4.91152
				4.89674
				4.91475
				4.9043
				4.91984
				4.91992
				4.92738
				4.94996
				4.94557
				4.98627
				4.97402
				5.01504
				5.00205
				5.02974
				5.02063
				5.02974
				5.0269
				5.01504
				5.02063
				4.98627
				5.00205
				4.94996
				4.97402
				4.91992
				4.94557
				4.9043
				4.92738
				4.89674
				4.91984
				4.89094
				4.91475
				4.92996
				4.92023
				4.93559
				4.92502
				4.94253
				4.93384
				4.95052
				4.94261
				4.95983
				4.95277
				4.96841
				4.96355
				4.9743
				4.97206
				4.9771
				4.97691
				4.9771
				4.9784
				4.9743
				4.97691
				4.96841
				4.97206
				4.95983
				4.96355
				4.95052
				4.95277
				4.94253
				4.94261
				4.93559
				4.93384
				4.92996
				4.92502
			</DataArray>
			<DataArray type="Float64" Name="velocity" NumberOfComponents="3" Format="ascii">
				0.203121 -0.161104 0
				0.391324 -2.23621e-07 0
				0.48195 -0.394128 0
				0.522798 -0.225907 0
				0.896279 -0.389098 0
				0.828268 -0.299864 0
				1.19593 -0.116561 0
				1.12011 -0.167397 0
				1.1746 0.262297 0
				1.21784 0.104082 0
				0.860885 0.499529 0
				1.06723 0.340227 0
				0.465831 0.463398 0
				0.787437 0.396249 0
				0.204195 0.186039 0
				0.545001 0.25646 0
				0.204195 -0.186039 0
				0.451927 -3.91044e-08 0
				0.465831 -0.463398 0
				0.545001 -0.25646 0
				0.860885 -0.499529 0
				0.787437 -0.396249 0
				1.1746 -0.262297 0
				1.06723 -0.340227 0
				1.19593 0.116561 0
				1.21784 -0.104082 0
				0.896279 0.389098 0
				1.12011 0.167397 0
				0.48195 0.394128 0
				0.828268 0.299864 0
				0.203121 0.161103 0
				0.522798 0.225907 0
				0.745343 -0.0530836 0
				0.603567 -8.3967e-09 0
				0.87647 -0.102167 0
				0.699937 -0.12679 0
				1.01251 -0.0620884 0
				0.895024 -0.144679 0
				1.07666 0.0281883 0
				1.04725 -0.0542081 0
				1.04953 0.117569 0
				1.08177 0.0869423 0
				0.960546 0.154868 0
				0.994463 0.196442 0
				0.867292 0.12448 0
				0.85 0.212725 0
				0.812264 0.0467682 0
				0.729057 0.133872 0
				0.812264 -0.0467682 0
				0.683284 -1.38405e-08 0
				0.867292 -0.12448 0
				0.729057 -0.133872 0
				0.960546 -0.154868 0
				0.85 -0.212725 0
				1.04953 -0.117569 0
				0.994463 -0.196442 0
				1.07666 -0.0281883 0
				1.08177 -0.0869423 0
				1.01251 0.0620884 0
				1.04725 0.0542081 0
				0.87647 0.102167 0
				0.895024 0.144679 0
				0.745343 0.0530836 0
				0.699936 0.12679 0
				0.866886 -0.0266918 0
				0.901223 -7.2582e-08 0
				0.942989 -0.0442089 0
				0.93804 -0.0302931 0
				1.00638 -0.0165341 0
				0.994509 -0.0206285 0
				1.02549 0.0244597 0
				1.02122 0.00661678 0
				1.00735 0.0569603 0
				1.01823 0.0320537 0
				0.970072 0.066154 0
				0.996349 0.0448038 0
				0.935011 0.0502891 0
				0.970489 0.0403587 0
				0.915347 0.0184512 0
				0.952241 0.0230739 0
				0.915347 -0.0184512 0
				0.945945 -1.26977e-09 0
				0.935011 -0.0502891 0
				0.952241 -0.0230739 0
				0.970072 -0.066154 0
				0.970489 -0.0403587 0
				1.00735 -0.0569603 0
				0.996349 -0.0448038 0
				1.02549 -0.0244597 0
				1.01823 -0.0320537 0
				1.00638 0.0165341 0
				1.02122 -0.00661678 0
				0.942989 0.0442089 0
				0.994509 0.0206285 0
				0.866886 0.0266916 0
				0.93804 0.030293 0
				0.97891 -0.00731909 0
				0.956243 -7.43949e-09 0
				0.997246 -0.0102799 0
				0.975359 -0.0152409 0
				1.00812 -0.00212584 0
				1.00165 -0.00900883 0
				1.00816 0.00619512 0
				1.01039 0.0042292 0
				1.00237 0.0110197 0
				1.00626 0.0142943 0
				0.995087 0.0113086 0
				0.996444 0.0181369 0
				0.989402 0.00799509 0
				0.986662 0.0155354 0
				0.986512 0.00283406 0
				0.980249 0.00866952 0
				0.986512 -0.00283405 0
				0.978101 7.89703e-10 0
				0.989402 -0.00799508 0
				0.980249 -0.00866952 0
				0.995087 -0.0113086 0
				0.986662 -0.0155354 0
				1.00237 -0.0110197 0
				0.996444 -0.0181369 0
				1.00816 -0.00619512 0
				1.00626 -0.0142943 0
				1.00812 0.00212584 0
				1.01039 -0.0042292 0
				0.997246 0.0102799 0
				1.00165 0.00900883 0
				0.97891 0.00731907 0
				0.975359 0.0152409 0
			</DataArray>
		</CellData>
		<Points>
		<DataArray type="Float64" NumberOfComponents="3" Format="ascii">
			0.5 0 0
			0.46194 0.191342 0
			0.353553 0.353553 0
			0.191342 0.46194 0
			-2.18557e-08 0.5 0
			-0.191342 0.46194 0
			-0.353553 0.353553 0
			-0.46194 0.191342 0
			-0.5 -4.37114e-08 0
			-0.46194 -0.191342 0
			-0.353553 -0.353553 0
			-0.191342 -0.46194 0
			6.55671e-08 -0.5 0
			0.191342 -0.46194 0
			0.353553 -0.353553 0
			0.46194 -0.191342 0
			0.884503 0.175939 0
			0.749846 0.501031 0
			0.501031 0.749846 0
			0.175939 0.884503 0
			-0.175939 0.884503 0
			-0.501031 0.749846 0
			-0.749846 0.501031 0
			-0.884503 0.175939 0
			-0.884503 -0.175939 0
			-0.749846 -0.501031 0
			-0.501031 -0.749846 0
			-0.175939 -0.884503 0
			0.175939 -0.884503 0
			0.501031 -0.749846 0
			0.749846 -0.501031 0
			0.884503 -0.175938 0
			2.20148 0 0
			2.0339 0.842468 0
			1.55668 1.55668 0
			0.842468 2.0339 0
			-9.62295e-08 2.20148 0
			-0.842468 2.0339 0
			-1.55668 1.55668 0
			-2.0339 0.842468 0
			-2.20148 -1.92459e-07 0
			-2.0339 -0.842468 0
			-1.55668 -1.55668 0
			-0.842468 -2.0339 0
			2.88689e-07 -2.20148 0
			0.842468 -2.0339 0
			1.55668 -1.55668 0
			2.0339 -0.842468 0
			6.28184 1.24954 0
			5.32549 3.55838 0
			3.55838 5.32549 0
			1.24954 6.28184 0
			-1.24954 6.28184 0
			-3.55838 5.32549 0
			-5.32549 3.55838 0
			-6.28184 1.24954 0
			-6.28184 -1.24954 0
			-5.32549 -3.55838 0
			-3.55838 -5.32549 0
			-1.24954 -6.28184 0
			1.24954 -6.28184 0
			3.55838 -5.32549 0
			5.32549 -3.55838 0
			6.28184 -1.24953 0
			20.0001 0 0
			18.4777 7.6537 0
			14.1422 14.1422 0
			7.6537 18.4777 0
			-8.74231e-07 20.0001 0
			-7.6537 18.4777 0
			-14.1422 14.1422 0
			-18.4777 7.65369 0
			-20.0001 -1.74846e-06 0
			-18.4777 -7.6537 0
			-14.1422 -14.1422 0
			-7.65369 -18.4777 0
			2.62269e-06 -20.0001 0
			7.6537 -18.4777 0
			14.1422 -14.1422 0
			18.4777 -7.65369 0
		</DataArray>
		</Points>
		<Cells>
			<DataArray type="UInt32" Name="connectivity" Format="ascii">
				0 16 1
				0 31 16
				1 17 2
				1 16 17
				2 18 3
				2 17 18
				3 19 4
				3 18 19
				4 20 5
				4 19 20
				5 21 6
				5 20 21
				6 22 7
				6 21 22
				7 23 8
				7 22 23
				8 24 9
				8 23 24
				9 25 10
				9 24 25
				10 26 11
				10 25 26
				11 27 12
				11 26 27
				12 28 13
				12 27 28
				13 29 14
				13 28 29
				14 30 15
				14 29 30
				15 31 0
				15 30 31
				16 32 33
				16 31 32
				17 33 34
				17 16 33
				18 34 35
				18 17 34
				19 35 36
				19 18 35
				20 36 37
				20 19 36
				21 37 38
				21 20 37
				22 38 39
				22 21 38
				23 39 40
				23 22 39
				24 40 41
				24 23 40
				25 41 42
				25 24 41
				26 42 43
				26 25 42
				27 43 44
				27 26 43
				28 44 45
				28 27 44
				29 45 46
				29 28 45
				30 46 47
				30 29 46
				31 47 32
				31 30 47
				32 48 33
				32 63 48
				33 49 34
				33 48 49
				34 50 35
				34 49 50
				35 51 36
				35 50 51
				36 52 37
				36 51 52
				37 53 38
				37 52 53
				38 54 39
				38 53 54
				39 55 40
				39 54 55
				40 56 41
				40 55 56
				41 57 42
				41 56 57
				42 58 43
				42 57 58
				43 59 44
				43 58 59
				44 60 45
				44 59 60
				45 61 46
				45 60 61
				46 62 47
				46 61 62
				47 63 32
				47 62 63
				48 64 65
				48 63 64
				49 65 66
				49 48 65
				50 66 67
				50 49 66
				51 67 68
				51 50 67
				52 68 69
				52 51 68
				53 69 70
				53 52 69
				54 70 71
				54 53 70
				55 71 72
				55 54 71
				56 72 73
				56 55 72
				57 73 74
				57 56 73
				58 74 75
				58 57 74
				59 75 76
				59 58 75
				60 76 77
				60 59 76
				61 77 78
				61 60 77
				62 78 79
				62 61 78
				63 79 64
				63 62 79
			</DataArray>
			<DataArray type="UInt32" Name="offsets" Format="ascii">
				3
				6
				9
				12
				15
				18
				21
				24
				27
				30
				33
				36
				39
				42
				45
				48
				51
				54
				57
				60
				63
				66
				69
				72
				75
				78
				81
				84
				87
				90
				93
				96
				99
				102
				105
				108
				111
				114
				117
				120
				123
				126
				129
				132
				135
				138
				141
				144
				147
				150
				153
				156
				159
				162
				165
				168
				171
				174
				177
				180
				183
				186
				189
				192
				195
				198
				201
				204
				207
				210
				213
				216
				219
				222
				225
				228
				231
				234
				237
				240
				243
				246
				249
				252
				255
				258
				261
				264
				267
				270
				273
				276
				279
				282
				285
				288
				291
				294
				297
				300
				303
				306
				309
				312
				315
				318
				321
				324
				327
				330
				333
				336
				339
				342
				345
				348
				351
				354
				357
				360
				363
				366
				369
				372
				375
				378
				381
				384
			</DataArray>
			<DataArray type="Int32" Name="types" Format="ascii">
				5
				5
				5
				5
				5
				5
				5
				5
				5
				5
				5
				5
				5
				5
				5
				5
				5
				5
				5
				5
				5
				5
				5
				5
				5
				5
				5
				5
				5
				5
				5
				5
				5
				5
				5
				5
				5
				5
				5
				5
				5
				5
				5
				5
				5
				5
				5
				5
				5
				5
				5
				5
				5
				5
				5
				5
				5
				5
				5
				5
				5
				5
				5
				5
				5
				5
				5
				5
				5
				5
				5
				5
				5
				5
				5
				5
				5
				5
				5
				5
				5
				5
				5
				5
				5
				5
				5
				5
				5
				5
				5
				5
				5
				5
				5
				5
				5
				5
				5
				5
				5
				5
				5
				5
				5
				5
				5
				5
				5
				5
				5
				5
				5
				5
				5
				5
				5
				5
				5
				5
				5
				5
				5
				5
				5
				5
				5
				5
			</DataArray>
		</Cells>
	</Piece>
</UnstructuredGrid>
</VTKFile>