<VTKFile type="UnstructuredGrid" version="0.1" byte_order="LittleEndian">
<UnstructuredGrid>
	<Piece NumberOfPoints="80" NumberOfCells="128">
		<CellData Scalars="density" Vectors="velocity">
			<DataArray type="Float64" Name="density" Format="ascii">
				1.07538
				1.14961
				0.918711
				1.03269
				0.831702
				0.92319
				0.782578
				0.848401
				0.812945
				0.833246
				0.901868
				0.884977
				1.01467
				0.963039
				1.11595
				1.03719
				1.11602
				1.10873
				1.01444
				1.03713
				0.90148
				0.962816
				0.812252
				0.884551
				0.781502
				0.832489
				0.830524
				0.847359
				0.917025
				0.921827
				1.15903
				1.03775
				1.03518
				1.16055
				0.98577
				1.00919
				0.980423
				0.972118
				0.975662
				0.955769
				0.981409
				0.953526
				1.00184
				0.973717
				1.02177
				1.0069
				1.02666
				1.03316
				1.02665
				1.06983
				1.02169
				1.03309
				1.00167
				1.00674
				0.981166
				0.973447
				0.975422
				0.953185
				0.980309
				0.955477
				0.985777
				0.97192
				1.03675
				1.0088
				0.996761
				1.00488
				0.992092
				0.996988
				0.995518
				1.0004
				0.996463
				1.00157
				0.999016
				1.00104
				1.00389
				1.00099
				1.00864
				1.001
				1.01126
				1.00107
				1.01125
				1.00379
				1.00861
				1.00105
				1.00383
				1.00097
				0.99893
				1.00094
				0.996367
				1.00098
				0.995419
				1.00151
				0.991971
				1.00033
				1.00707
				0.997147
				0.997629
				0.990334
				0.99797
				0.99758
				0.997896
				0.997892
				0.997638
				0.998229
				0.998942
				0.998491
				0.99984
				0.99954
				0.999969
				1.00059
				0.999743
				1.00103
				0.999743
				1.00206
				0.999965
				1.00102
				0.999836
				1.00058
				0.998943
				0.999531
				0.997657
				0.998493
				0.997935
				0.998245
				0.99803
				0.99796
				0.993071
				0.99747
			</DataArray>
			<DataArray type="Float64" Name="mach-number" Format="ascii">
				0.0541592
				0.0687074
				0.257707
				0.232641
				0.452267
				0.389842
				0.568423
				0.519185
				0.546265
				0.54895
				0.423439
				0.472702
				0.262317
				0.349395
				0.0892315
				0.234093
				0.0897137
				0.157821
				0.262884
				0.234405
				0.424208
				0.349955
				0.547487
				0.473515
				0.570239
				0.550187
				0.45429
				0.520795
				0.259877
				0.391431
				0.0549434
				0.23284
				0.268124
				0.109823
				0.350187
				0.286095
				0.391221
				0.363419
				0.421311
				0.417745
				0.420912
				0.439622
				0.386527
				0.411592
				0.346898
				0.350761
				0.325328
				0.293052
				0.325408
				0.227932
				0.347131
				0.293235
				0.386916
				0.351125
				0.421404
				0.412099
				0.421771
				0.440205
				0.391469
				0.418222
				0.350165
				0.363594
				0.267678
				0.28571
				0.300786
				0.298832
				0.368813
				0.36946
				0.386297
				0.38399
				0.393963
				0.389553
				0.390602
				0.388994
				0.378296
				0.382866
				0.365055
				0.375147
				0.355361
				0.370702
				0.355399
				0.369809
				0.365176
				0.370779
				0.378495
				0.375287
				0.39085
				0.383056
				0.394218
				0.389207
				0.386501
				0.389749
				0.36894
				0.384135
				0.301163
				0.369169
				0.367281
				0.306623
				0.384748
				0.383128
				0.38559
				0.385511
				0.38511
				0.386098
				0.382974
				0.384969
				0.380786
				0.381791
				0.379487
				0.378923
				0.379023
				0.377255
				0.379028
				0.376137
				0.3795
				0.377278
				0.380803
				0.378957
				0.382984
				0.381827
				0.385103
				0.384991
				0.385557
				0.386095
				0.384701
				0.385491
				0.366076
				0.382636
			</DataArray>
			<DataArray type="Float64" Name="pressure" Format="ascii">
				5.00593
				5.01688
				4.77191
				4.89443
				4.40463
				4.66589
				4.13219
				4.37945
				4.29693
				4.37063
				4.79217
				4.71306
				5.25669
				5.13704
				5.36697
				5.35207
				5.36687
				5.35
				5.25522
				5.3516
				4.78933
				5.13539
				4.29203
				4.71012
				4.12513
				4.36593
				4.39753
				4.37352
				4.76714
				4.66084
				4.99741
				4.89148
				4.96193
				4.98034
				4.9311
				4.93846
				4.87664
				4.85874
				4.82738
				4.75678
				4.84959
				4.73707
				4.95326
				4.85521
				5.06273
				5.03098
				5.10246
				5.13626
				5.10226
				5.15667
				5.06211
				5.13584
				4.95215
				5.02992
				4.84808
				4.85351
				4.82585
				4.7349
				4.87552
				4.75464
				4.93055
				4.85726
				4.96343
				4.93839
				4.95917
				4.9656
				4.94813
				4.94835
				4.92898
				4.94261
				4.91795
				4.93685
				4.929
				4.94225
				4.96
				4.95913
				4.99056
				4.97738
				5.00317
				4.98635
				5.00306
				4.98591
				4.99021
				4.98616
				4.95942
				4.97701
				4.92825
				4.95861
				4.91716
				4.94165
				4.92826
				4.93626
				4.94753
				4.94205
				4.95946
				4.94841
				4.93908
				4.93643
				4.93997
				4.93979
				4.94029
				4.93913
				4.94148
				4.93982
				4.94786
				4.94316
				4.95536
				4.95254
				4.9606
				4.96075
				4.96265
				4.96525
				4.96262
				4.96613
				4.96054
				4.96518
				4.95529
				4.96064
				4.94781
				4.95242
				4.94149
				4.94306
				4.94038
				4.93978
				4.94012
				4.93916
				4.94103
				4.94058
			</DataArray>
			<DataArray type="Float64" Name="velocity" NumberOfComponents="3" Format="ascii">
				0.118026 -0.0720119 0
				0.169828 -0.00010976 0
				0.56878 -0.399288 0
				0.57699 -0.161855 0
				1.13998 -0.46583 0
				0.981204 -0.335538 0
				1.53714 -0.160323 0
				1.36713 -0.281014 0
				1.4525 0.31369 0
				1.48696 0.043228 0
				1.00067 0.576614 0
				1.23774 0.366035 0
				0.501532 0.497537 0
				0.84946 0.435973 0
				0.152718 0.174033 0
				0.573962 0.257787 0
				0.153083 -0.175364 0
				0.410196 -0.000687 0
				0.502373 -0.498831 0
				0.574279 -0.259097 0
				1.0023 -0.577792 0
				0.850544 -0.437118 0
				1.45554 -0.314377 0
				1.23975 -0.366777 0
				1.54175 0.161165 0
				1.4902 -0.0428353 0
				1.14465 0.468651 0
				1.37096 0.283424 0
				0.57316 0.403742 0
				0.984371 0.339958 0
				0.111196 0.0765375 0
				0.574571 0.166211 0
				0.691482 -0.065429 0
				0.269186 -0.000644376 0
				0.924032 -0.0705235 0
				0.741735 -0.102821 0
				1.03086 -0.0559273 0
				0.953031 -0.12606 0
				1.10881 0.00953398 0
				1.09993 -0.0780693 0
				1.10185 0.107555 0
				1.15815 0.0538153 0
				1.00437 0.159304 0
				1.07111 0.187952 0
				0.904829 0.126685 0
				0.900787 0.221839 0
				0.856628 0.0510451 0
				0.758909 0.147576 0
				0.856782 -0.051841 0
				0.592102 -0.000442119 0
				0.905321 -0.127445 0
				0.759221 -0.148455 0
				1.00529 -0.159844 0
				0.901572 -0.22258 0
				1.1031 -0.107691 0
				1.07236 -0.188365 0
				1.10999 -0.00911546 0
				1.15964 -0.0536003 0
				1.03142 0.0567524 0
				1.10104 0.0790375 0
				0.923867 0.0712108 0
				0.953263 0.127455 0
				0.689793 0.0665453 0
				0.740691 0.104048 0
				0.793794 -0.00834748 0
				0.785994 -0.000806091 0
				0.974458 -0.0150096 0
				0.973887 0.00606838 0
				1.01703 -0.00411622 0
				1.00989 0.00177692 0
				1.03538 0.0200927 0
				1.02326 0.011334 0
				1.02547 0.047799 0
				1.02236 0.0257223 0
				0.993153 0.0594969 0
				1.0077 0.0354501 0
				0.959685 0.0460673 0
				0.989289 0.0319013 0
				0.93507 0.0180755 0
				0.978767 0.0173113 0
				0.935158 -0.0184754 0
				0.975196 -0.000157657 0
				0.959968 -0.0464276 0
				0.978957 -0.0175962 0
				0.993634 -0.0597313 0
				0.989632 -0.0321058 0
				1.02608 -0.0478263 0
				1.00817 -0.0355066 0
				1.03602 -0.0198478 0
				1.0229 -0.0255647 0
				1.01754 0.00467625 0
				1.02376 -0.010905 0
				0.974784 0.0157076 0
				1.01025 -0.0011431 0
				0.79071 0.0101573 0
				0.973056 -0.00456616 0
				0.966885 -0.0105152 0
				0.809998 0.00162021 0
				1.01285 0.00185319 0
				1.00876 0.00143973 0
				1.01512 0.00544848 0
				1.0148 0.00417012 0
				1.0141 0.00762224 0
				1.01622 0.00825378 0
				1.00847 0.00626783 0
				1.01343 0.0108802 0
				1.00302 0.00576228 0
				1.00548 0.0122045 0
				1.00007 0.00350598 0
				0.998247 0.0100107 0
				0.999177 0.00113115 0
				0.994123 0.00538977 0
				0.999187 -0.0011842 0
				0.990767 -4.3868e-05 0
				1.0001 -0.00354514 0
				0.994182 -0.00546018 0
				1.00306 -0.00577616 0
				0.998331 -0.0100477 0
				1.00849 -0.0062505 0
				1.00556 -0.0121907 0
				1.01407 -0.00755054 0
				1.01348 -0.0108022 0
				1.01502 -0.00535897 0
				1.0162 -0.00810187 0
				1.0127 -0.0019287 0
				1.01472 -0.00405173 0
				0.966102 0.0115795 0
				1.0076 -0.000842398 0
			</DataArray>
		</CellData>
		<Points>
		<DataArray type="Float64" NumberOfComponents="3" Format="ascii">
			0.5 0 0
			0.46194 0.191342 0
			0.353553 0.353553 0
			0.191342 0.46194 0
			-2.18557e-08 0.5 0
			-0.191342 0.46194 0
			-0.353553 0.353553 0
			-0.46194 0.191342 0
			-0.5 -4.37114e-08 0
			-0.46194 -0.191342 0
			-0.353553 -0.353553 0
			-0.191342 -0.46194 0
			6.55671e-08 -0.5 0
			0.191342 -0.46194 0
			0.353553 -0.353553 0
			0.46194 -0.191342 0
			0.884503 0.175939 0
			0.749846 0.501031 0
			0.501031 0.749846 0
			0.175939 0.884503 0
			-0.175939 0.884503 0
			-0.501031 0.749846 0
			-0.749846 0.501031 0
			-0.884503 0.175939 0
			-0.884503 -0.175939 0
			-0.749846 -0.501031 0
			-0.501031 -0.749846 0
			-0.175939 -0.884503 0
			0.175939 -0.884503 0
			0.501031 -0.749846 0
			0.749846 -0.501031 0
			0.884503 -0.175938 0
			2.20148 0 0
			2.0339 0.842468 0
			1.55668 1.55668 0
			0.842468 2.0339 0
			-9.62295e-08 2.20148 0
			-0.842468 2.0339 0
			-1.55668 1.55668 0
			-2.0339 0.842468 0
			-2.20148 -1.92459e-07 0
			-2.0339 -0.842468 0
			-1.55668 -1.55668 0
			-0.842468 -2.0339 0
			2.88689e-07 -2.20148 0
			0.842468 -2.0339 0
			1.55668 -1.55668 0
			2.0339 -0.842468 0
			6.28184 1.24954 0
			5.32549 3.55838 0
			3.55838 5.32549 0
			1.24954 6.28184 0
			-1.24954 6.28184 0
			-3.55838 5.32549 0
			-5.32549 3.55838 0
			-6.28184 1.24954 0
			-6.28184 -1.24954 0
			-5.32549 -3.55838 0
			-3.55838 -5.32549 0
			-1.24954 -6.28184 0
			1.24954 -6.28184 0
			3.55838 -5.32549 0
			5.32549 -3.55838 0
			6.28184 -1.24953 0
			20.0001 0 0
			18.4777 7.6537 0
			14.1422 14.1422 0
			7.6537 18.4777 0
			-8.74231e-07 20.0001 0
			-7.6537 18.4777 0
			-14.1422 14.1422 0
			-18.4777 7.65369 0
			-20.0001 -1.74846e-06 0
			-18.4777 -7.6537 0
			-14.1422 -14.1422 0
			-7.65369 -18.4777 0
			2.62269e-06 -20.0001 0
			7.6537 -18.4777 0
			14.1422 -14.1422 0
			18.4777 -7.65369 0
		</DataArray>
		</Points>
		<Cells>
			<DataArray type="UInt32" Name="connectivity" Format="ascii">
				0 16 1
				0 31 16
				1 17 2
				1 16 17
				2 18 3
				2 17 18
				3 19 4
				3 18 19
				4 20 5
				4 19 20
				5 21 6
				5 20 21
				6 22 7
				6 21 22
				7 23 8
				7 22 23
				8 24 9
				8 23 24
				9 25 10
				9 24 25
				10 26 11
				10 25 26
				11 27 12
				11 26 27
				12 28 13
				12 27 28
				13 29 14
				13 28 29
				14 30 15
				14 29 30
				15 31 0
				15 30 31
				16 32 33
				16 31 32
				17 33 34
				17 16 33
				18 34 35
				18 17 34
				19 35 36
				19 18 35
				20 36 37
				20 19 36
				21 37 38
				21 20 37
				22 38 39
				22 21 38
				23 39 40
				23 22 39
				24 40 41
				24 23 40
				25 41 42
				25 24 41
				26 42 43
				26 25 42
				27 43 44
				27 26 43
				28 44 45
				28 27 44
				29 45 46
				29 28 45
				30 46 47
				30 29 46
				31 47 32
				31 30 47
				32 48 33
				32 63 48
				33 49 34
				33 48 49
				34 50 35
				34 49 50
				35 51 36
				35 50 51
				36 52 37
				36 51 52
				37 53 38
				37 52 53
				38 54 39
				38 53 54
				39 55 40
				39 54 55
				40 56 41
				40 55 56
				41 57 42
				41 56 57
				42 58 43
				42 57 58
				43 59 44
				43 58 59
				44 60 45
				44 59 60
				45 61 46
				45 60 61
				46 62 47
				46 61 62
				47 63 32
				47 62 63
				48 64 65
				48 63 64
				49 65 66
				49 48 65
				50 66 67
				50 49 66
				51 67 68
				51 50 67
				52 68 69
				52 51 68
				53 69 70
				53 52 69
				54 70 71
				54 53 70
				55 71 72
				55 54 71
				56 72 73
				56 55 72
				57 73 74
				57 56 73
				58 74 75
				58 57 74
				59 75 76
				59 58 75
				60 76 77
				60 59 76
				61 77 78
				61 60 77
				62 78 79
				62 61 78
				63 79 64
				63 62 79
			</DataArray>
			<DataArray type="UInt32" Name="offsets" Format="ascii">
				3
				6
				9
				12
				15
				18
				21
				24
				27
				30
				33
				36
				39
				42
				45
				48
				51
				54
				57
				60
				63
				66
				69
				72
				75
				78
				81
				84
				87
				90
				93
				96
				99
				102
				105
				108
				111
				114
				117
				120
				123
				126
				129
				132
				135
				138
				141
				144
				147
				150
				153
				156
				159
				162
				165
				168
				171
				174
				177
				180
				183
				186
				189
				192
				195
				198
				201
				204
				207
				210
				213
				216
				219
				222
				225
				228
				231
				234
				237
				240
				243
				246
				249
				252
				255
				258
				261
				264
				267
				270
				273
				276
				279
				282
				285
				288
				291
				294
				297
				300
				303
				306
				309
				312
				315
				318
				321
				324
				327
				330
				333
				336
				339
				342
				345
				348
				351
				354
				357
				360
				363
				366
				369
				372
				375
				378
				381
				384
			</DataArray>
			<DataArray type="Int32" Name="types" Format="ascii">
				5
				5
				5
				5
				5
				5
				5
				5
				5
				5
				5
				5
				5
				5
				5
				5
				5
				5
				5
				5
				5
				5
				5
				5
				5
				5
				5
				5
				5
				5
				5
				5
				5
				5
				5
				5
				5
				5
				5
				5
				5
				5
				5
				5
				5
				5
				5
				5
				5
				5
				5
				5
				5
				5
				5
				5
				5
				5
				5
				5
				5
				5
				5
				5
				5
				5
				5
				5
				5
				5
				5
				5
				5
				5
				5
				5
				5
				5
				5
				5
				5
				5
				5
				5
				5
				5
				5
				5
				5
				5
				5
				5
				5
				5
				5
				5
				5
				5
				5
				5
				5
				5
				5
				5
				5
				5
				5
				5
				5
				5
				5
				5
				5
				5
				5
				5
				5
				5
				5
				5
				5
				5
				5
				5
				5
				5
				5
				5
			</DataArray>
		</Cells>
	</Piece>
</UnstructuredGrid>
</VTKFile>