<VTKFile type="UnstructuredGrid" version="0.1" byte_order="LittleEndian">
<UnstructuredGrid>
	<Piece NumberOfPoints="288" NumberOfCells="512">
		<CellData Scalars="density" Vectors="velocity">
			<DataArray type="Float64" Name="density" Format="ascii">
				0.851354
				0.833591
				0.843512
				0.841146
				0.856989
				0.847728
				0.824138
				0.840033
				0.787349
				0.808372
				0.777204
				0.792041
				0.789186
				0.799618
				0.785209
				0.808594
				0.801824
				0.776328
				0.934146
				0.863079
				1.06476
				1.0018
				1.14048
				1.11035
				1.15046
				1.14718
				1.12286
				1.12501
				1.08158
				1.08723
				1.02098
				1.06119
				1.11376
				1.07272
				1.09806
				1.10416
				1.0616
				1.08743
				1.00827
				1.04599
				0.943983
				0.990674
				0.874342
				0.927521
				0.807078
				0.863297
				0.752494
				0.806823
				0.721293
				0.767848
				0.717488
				0.751985
				0.733862
				0.755933
				0.757659
				0.770701
				0.77826
				0.787386
				0.791569
				0.800281
				0.79906
				0.809457
				0.798986
				0.819037
				0.859344
				0.862094
				0.858695
				0.862724
				0.853084
				0.861741
				0.85002
				0.858997
				0.847289
				0.848066
				0.851077
				0.841381
				0.860139
				0.844535
				0.876338
				0.854253
				0.910724
				0.861723
				0.964194
				0.911795
				1.02443
				0.988608
				1.06535
				1.05282
				1.08191
				1.0839
				1.08358
				1.087
				1.08106
				1.07739
				1.08251
				1.06568
				1.07785
				1.07542
				1.0744
				1.08486
				1.05688
				1.0687
				1.02733
				1.03883
				0.98955
				0.998892
				0.947939
				0.952856
				0.907992
				0.90599
				0.875911
				0.865133
				0.856152
				0.837155
				0.848563
				0.825105
				0.84893
				0.826075
				0.852206
				0.834086
				0.854904
				0.843279
				0.85614
				0.849674
				0.857937
				0.853015
				0.861506
				0.855522
				0.891791
				0.894452
				0.891048
				0.892153
				0.890449
				0.891228
				0.889907
				0.893377
				0.890009
				0.899646
				0.89397
				0.908127
				0.902083
				0.917683
				0.916022
				0.930835
				0.946086
				0.951437
				0.986274
				0.978313
				1.02439
				1.00793
				1.04964
				1.03378
				1.06071
				1.05113
				1.06295
				1.06015
				1.06247
				1.06403
				1.06469
				1.06592
				1.06627
				1.06546
				1.06255
				1.06195
				1.04923
				1.0542
				1.02807
				1.04014
				1.001
				1.02014
				0.970659
				0.995867
				0.940725
				0.969963
				0.915519
				0.945852
				0.898484
				0.926946
				0.890363
				0.915232
				0.889083
				0.91023
				0.891312
				0.909209
				0.893803
				0.908581
				0.89435
				0.905859
				0.893269
				0.901284
				0.892752
				0.897392
				0.925284
				0.922357
				0.927146
				0.921553
				0.934454
				0.924571
				0.943986
				0.929604
				0.952561
				0.935026
				0.959617
				0.941143
				0.967388
				0.948749
				0.977916
				0.95961
				0.991011
				0.975787
				1.00542
				0.994796
				1.01885
				1.01298
				1.02951
				1.02711
				1.03688
				1.03625
				1.04146
				1.04147
				1.04401
				1.04435
				1.04488
				1.04622
				1.044
				1.04694
				1.04094
				1.04565
				1.03524
				1.04126
				1.02652
				1.0328
				1.01499
				1.02042
				1.00143
				1.00496
				0.987264
				0.987893
				0.974242
				0.971278
				0.963986
				0.957326
				0.957331
				0.947551
				0.953956
				0.942076
				0.952359
				0.939689
				0.950092
				0.938494
				0.944748
				0.93648
				0.936476
				0.932172
				0.928925
				0.926529
				0.944565
				0.949962
				0.949445
				0.951329
				0.958437
				0.960873
				0.966267
				0.97148
				0.972214
				0.978445
				0.977539
				0.982674
				0.983648
				0.98658
				0.991291
				0.991558
				0.999808
				0.997774
				1.00821
				1.00472
				1.01555
				1.01152
				1.02133
				1.01742
				1.02551
				1.02204
				1.02829
				1.02533
				1.02994
				1.02739
				1.03054
				1.02837
				1.03003
				1.02832
				1.02825
				1.02718
				1.02495
				1.02485
				1.01993
				1.0212
				1.01322
				1.0162
				1.00519
				1.00998
				0.996547
				1.00295
				0.988259
				0.995815
				0.981298
				0.989368
				0.976242
				0.98429
				0.973029
				0.980873
				0.970944
				0.978899
				0.968703
				0.977494
				0.964411
				0.97475
				0.956484
				0.967967
				0.947757
				0.957524
				0.966816
				0.962098
				0.975093
				0.964991
				0.985428
				0.975166
				0.991132
				0.983688
				0.993692
				0.988523
				0.99566
				0.991718
				0.998063
				0.99474
				1.00106
				0.998186
				1.00447
				1.00205
				1.00795
				1.00608
				1.01114
				1.00992
				1.0138
				1.01326
				1.01582
				1.01589
				1.01719
				1.01778
				1.01795
				1.01897
				1.01813
				1.0195
				1.01776
				1.01941
				1.01682
				1.01869
				1.01528
				1.01729
				1.0131
				1.01516
				1.0103
				1.01227
				1.00698
				1.00866
				1.00337
				1.00454
				0.999807
				1.00026
				0.996663
				0.996261
				0.994208
				0.992951
				0.992518
				0.990516
				0.99142
				0.988827
				0.990298
				0.987388
				0.987345
				0.985109
				0.979599
				0.97964
				0.969417
				0.969683
				0.975414
				0.978153
				0.983622
				0.982362
				0.991934
				0.991573
				0.995897
				0.99672
				0.997848
				0.998538
				0.999404
				0.999664
				1.00107
				1.00094
				1.00296
				1.00248
				1.00501
				1.00423
				1.00705
				1.00604
				1.00889
				1.00776
				1.01041
				1.00925
				1.01155
				1.01042
				1.0123
				1.01125
				1.01269
				1.01175
				1.01276
				1.01194
				1.0125
				1.01186
				1.01193
				1.0115
				1.01102
				1.01086
				1.00976
				1.00991
				1.00813
				1.00866
				1.00618
				1.0071
				1.00403
				1.00532
				1.00186
				1.00343
				0.999882
				1.00161
				0.998253
				1.00002
				0.997026
				0.998773
				0.996088
				0.997873
				0.995075
				0.997194
				0.99286
				0.996205
				0.986623
				0.992866
				0.977343
				0.984772
				0.986266
				0.983232
				0.9932
				0.98728
				0.998502
				0.994777
				1.00065
				0.998666
				1.00199
				1.00048
				1.00331
				1.00189
				1.00466
				1.00326
				1.006
				1.00469
				1.00727
				1.00613
				1.00839
				1.0075
				1.00928
				1.00869
				1.00994
				1.00964
				1.01037
				1.01033
				1.01061
				1.01078
				1.01069
				1.011
				1.01065
				1.01106
				1.0105
				1.01096
				1.01024
				1.01072
				1.00985
				1.01033
				1.0093
				1.00976
				1.00857
				1.00898
				1.00763
				1.00797
				1.00651
				1.00675
				1.00526
				1.00538
				1.00396
				1.00394
				1.00269
				1.00255
				1.00154
				1.0013
				1.00051
				1.0002
				0.999535
				0.999194
				0.998068
				0.998012
				0.993952
				0.995375
				0.98706
				0.988852
			</DataArray>
			<DataArray type="Float64" Name="mach-number" Format="ascii">
				0.0624101
				0.154642
				0.0532455
				0.0752876
				0.06482
				0.0287822
				0.0812995
				0.0719307
				0.124981
				0.0966085
				0.0737549
				0.0695685
				0.0692327
				0.0433121
				0.210613
				0.151271
				0.261656
				0.234978
				0.348892
				0.347145
				0.330932
				0.367656
				0.251054
				0.30559
				0.140718
				0.191994
				0.123732
				0.0921846
				0.224639
				0.150284
				0.239284
				0.202863
				0.176935
				0.0748644
				0.259974
				0.148185
				0.325881
				0.24368
				0.390172
				0.325436
				0.451421
				0.399934
				0.504686
				0.465626
				0.541534
				0.516281
				0.548333
				0.541143
				0.509423
				0.526242
				0.42223
				0.46378
				0.308881
				0.363789
				0.206155
				0.251111
				0.156479
				0.157699
				0.175263
				0.128109
				0.214704
				0.16379
				0.218362
				0.196283
				0.0859047
				0.112114
				0.0495998
				0.0794396
				0.0236455
				0.0320991
				0.0552488
				0.0118049
				0.12239
				0.051772
				0.217985
				0.119798
				0.31093
				0.215522
				0.378481
				0.304997
				0.4396
				0.376606
				0.435392
				0.434908
				0.358183
				0.416691
				0.249684
				0.329552
				0.168194
				0.210352
				0.16168
				0.138159
				0.179912
				0.166133
				0.151257
				0.181871
				0.0871056
				0.0840586
				0.127089
				0.0794594
				0.221998
				0.189357
				0.314157
				0.286552
				0.398121
				0.374498
				0.47006
				0.451845
				0.523506
				0.513464
				0.549464
				0.55046
				0.539798
				0.552118
				0.492301
				0.512237
				0.412255
				0.434841
				0.311047
				0.333052
				0.204244
				0.225567
				0.113514
				0.137675
				0.0824318
				0.110237
				0.0948271
				0.130111
				0.0430818
				0.020542
				0.0352561
				0.0216804
				0.0901506
				0.0840052
				0.165967
				0.163207
				0.25307
				0.248033
				0.342854
				0.33447
				0.413566
				0.405353
				0.454713
				0.448409
				0.460012
				0.462052
				0.417932
				0.433979
				0.343911
				0.373835
				0.268336
				0.306174
				0.22187
				0.256324
				0.208713
				0.232911
				0.203846
				0.224343
				0.18193
				0.21393
				0.157345
				0.199154
				0.167121
				0.195249
				0.222551
				0.219683
				0.293952
				0.269621
				0.366388
				0.330369
				0.432546
				0.391892
				0.486081
				0.447122
				0.520063
				0.489538
				0.528146
				0.512949
				0.506648
				0.512695
				0.455224
				0.486342
				0.376962
				0.433404
				0.279338
				0.355945
				0.174797
				0.260111
				0.0850466
				0.157317
				0.0486827
				0.0684644
				0.087242
				0.0537879
				0.144316
				0.0733938
				0.231546
				0.151856
				0.314835
				0.242502
				0.381503
				0.326213
				0.42451
				0.393027
				0.442508
				0.43453
				0.438209
				0.448846
				0.414467
				0.437621
				0.379989
				0.404666
				0.344841
				0.361569
				0.316259
				0.321131
				0.296387
				0.291321
				0.283595
				0.272609
				0.275203
				0.260869
				0.27027
				0.251737
				0.270245
				0.246012
				0.277633
				0.24792
				0.294539
				0.262034
				0.320808
				0.29017
				0.353568
				0.328256
				0.388755
				0.37069
				0.421885
				0.411975
				0.448522
				0.446866
				0.464878
				0.470612
				0.468235
				0.479529
				0.456335
				0.470992
				0.426009
				0.442369
				0.373082
				0.390536
				0.295304
				0.313967
				0.199239
				0.217163
				0.112549
				0.118564
				0.148138
				0.177251
				0.206009
				0.200693
				0.289395
				0.275416
				0.358073
				0.346092
				0.401911
				0.392404
				0.422436
				0.415255
				0.424839
				0.420707
				0.414275
				0.414414
				0.395469
				0.400486
				0.373595
				0.383034
				0.3527
				0.365352
				0.33515
				0.349659
				0.321745
				0.33706
				0.3123
				0.327805
				0.306299
				0.321689
				0.303664
				0.318517
				0.304756
				0.318321
				0.310193
				0.321346
				0.320548
				0.327942
				0.335997
				0.338377
				0.355698
				0.352523
				0.377855
				0.369547
				0.399974
				0.387887
				0.419259
				0.405436
				0.433149
				0.419951
				0.439681
				0.429525
				0.437121
				0.432738
				0.422575
				0.427966
				0.390461
				0.411723
				0.333197
				0.376998
				0.249707
				0.31526
				0.168333
				0.232907
				0.252714
				0.226169
				0.303102
				0.250274
				0.360041
				0.316947
				0.392025
				0.370931
				0.403647
				0.398574
				0.404533
				0.407835
				0.400106
				0.406811
				0.39285
				0.4002
				0.384202
				0.390565
				0.3752
				0.37967
				0.366734
				0.368831
				0.359485
				0.359069
				0.353834
				0.351051
				0.349897
				0.345065
				0.347643
				0.341132
				0.347014
				0.339198
				0.347985
				0.339229
				0.350591
				0.34127
				0.354898
				0.34542
				0.360936
				0.351768
				0.368591
				0.360272
				0.377478
				0.370586
				0.386879
				0.381959
				0.395819
				0.393263
				0.403278
				0.403198
				0.408431
				0.4106
				0.410669
				0.414592
				0.409033
				0.414235
				0.400514
				0.407228
				0.376761
				0.38737
				0.326319
				0.343197
				0.265143
				0.274273
				0.290952
				0.305561
				0.333472
				0.324908
				0.375579
				0.366096
				0.394079
				0.389575
				0.398144
				0.395909
				0.396578
				0.395433
				0.392773
				0.392669
				0.387823
				0.38887
				0.382255
				0.384451
				0.376555
				0.379753
				0.371228
				0.375182
				0.366682
				0.371117
				0.363146
				0.367814
				0.360689
				0.365386
				0.35929
				0.363844
				0.358901
				0.363154
				0.359495
				0.363279
				0.361077
				0.364205
				0.36368
				0.365942
				0.367324
				0.368513
				0.371961
				0.371911
				0.377404
				0.376054
				0.383277
				0.380728
				0.389046
				0.385574
				0.394128
				0.390135
				0.398039
				0.393972
				0.400447
				0.396772
				0.400907
				0.398322
				0.397696
				0.398084
				0.384309
				0.393401
				0.348297
				0.375267
				0.299588
				0.336026
				0.354778
				0.336057
				0.372511
				0.350544
				0.38664
				0.378122
				0.390579
				0.391304
				0.390137
				0.39331
				0.388458
				0.391809
				0.386245
				0.389334
				0.383661
				0.386375
				0.380866
				0.383086
				0.378075
				0.379671
				0.375508
				0.376394
				0.373334
				0.373497
				0.371641
				0.371138
				0.370457
				0.369386
				0.369769
				0.368245
				0.369555
				0.367693
				0.369797
				0.367708
				0.370492
				0.368279
				0.371645
				0.369407
				0.373262
				0.371104
				0.375326
				0.373364
				0.377772
				0.376141
				0.380466
				0.379311
				0.383208
				0.382662
				0.385767
				0.385918
				0.387944
				0.388815
				0.389614
				0.391172
				0.390681
				0.39289
				0.390772
				0.393733
				0.387755
				0.39223
				0.375897
				0.382186
				0.357232
				0.356616
			</DataArray>
			<DataArray type="Float64" Name="pressure" Format="ascii">
				4.33939
				4.21932
				4.27298
				4.26011
				4.35276
				4.2979
				4.12723
				4.24425
				3.91007
				4.04636
				3.83403
				3.94439
				3.86919
				3.95666
				3.81512
				3.97457
				3.94214
				3.78432
				4.68173
				4.26407
				5.45631
				5.06284
				5.94294
				5.73189
				6.02979
				5.98491
				5.83833
				5.84601
				5.56694
				5.59496
				5.26604
				5.45549
				5.82811
				5.61835
				5.65208
				5.76002
				5.38607
				5.60184
				5.02779
				5.30691
				4.61295
				4.93584
				4.17979
				4.5276
				3.77759
				4.12689
				3.46635
				3.78833
				3.30357
				3.5678
				3.30688
				3.4939
				3.4314
				3.5436
				3.60345
				3.66288
				3.76451
				3.80104
				3.88695
				3.92495
				3.96506
				4.02305
				3.9888
				4.10858
				4.35572
				4.37493
				4.35598
				4.38125
				4.32254
				4.37816
				4.30335
				4.36358
				4.27322
				4.29698
				4.25577
				4.23804
				4.26634
				4.21289
				4.3348
				4.23362
				4.50481
				4.25353
				4.81525
				4.51544
				5.19459
				4.96878
				5.45789
				5.37634
				5.55418
				5.58055
				5.55145
				5.58818
				5.53473
				5.51567
				5.57171
				5.45668
				5.57886
				5.57089
				5.57001
				5.65128
				5.44676
				5.53011
				5.23773
				5.31433
				4.97483
				5.03465
				4.69131
				4.72137
				4.42595
				4.41198
				4.22008
				4.15179
				4.10224
				3.98368
				4.07145
				3.92512
				4.10155
				3.95674
				4.16017
				4.04021
				4.22302
				4.13804
				4.27797
				4.22361
				4.32358
				4.28483
				4.36196
				4.32321
				4.55344
				4.56086
				4.55168
				4.55495
				4.53747
				4.54103
				4.50923
				4.52934
				4.46815
				4.52625
				4.44139
				4.52547
				4.44877
				4.53869
				4.5059
				4.58964
				4.67369
				4.69888
				4.92302
				4.86343
				5.16749
				5.05147
				5.32704
				5.2143
				5.39115
				5.32113
				5.40037
				5.37559
				5.39854
				5.39972
				5.42382
				5.41615
				5.45046
				5.42222
				5.43985
				5.40981
				5.35539
				5.36664
				5.21234
				5.2763
				5.02746
				5.14286
				4.82171
				4.97968
				4.6219
				4.80641
				4.45787
				4.64731
				4.35282
				4.52589
				4.31247
				4.456
				4.32521
				4.43614
				4.37133
				4.45164
				4.43017
				4.48259
				4.48402
				4.51332
				4.52219
				4.53775
				4.54608
				4.55551
				4.73468
				4.71854
				4.72934
				4.71851
				4.72515
				4.70823
				4.72443
				4.68768
				4.72673
				4.66569
				4.73737
				4.65697
				4.76808
				4.67326
				4.8263
				4.72414
				4.90737
				4.81873
				4.99956
				4.93868
				5.08681
				5.05598
				5.15694
				5.14764
				5.20589
				5.20738
				5.23657
				5.24194
				5.25422
				5.26175
				5.26103
				5.27572
				5.25632
				5.28265
				5.23687
				5.27633
				5.19929
				5.24892
				5.14099
				5.19295
				5.0636
				5.10984
				4.97311
				5.00593
				4.87954
				4.89211
				4.79531
				4.78303
				4.73169
				4.69406
				4.69469
				4.63577
				4.68334
				4.60997
				4.69065
				4.61095
				4.70625
				4.6302
				4.72051
				4.65914
				4.73005
				4.6884
				4.73525
				4.70927
				4.82011
				4.83712
				4.81741
				4.83667
				4.80968
				4.83856
				4.8029
				4.84204
				4.80517
				4.84511
				4.82035
				4.85145
				4.85066
				4.86724
				4.89641
				4.89555
				4.95099
				4.93488
				5.00648
				4.98058
				5.05588
				5.0262
				5.09535
				5.06626
				5.12414
				5.09777
				5.14344
				5.12023
				5.15496
				5.13444
				5.15929
				5.14122
				5.15598
				5.14093
				5.1438
				5.1332
				5.12116
				5.11722
				5.08667
				5.09219
				5.04076
				5.05784
				4.98612
				5.01532
				4.92795
				4.96767
				4.87325
				4.91981
				4.82896
				4.8776
				4.79946
				4.84601
				4.78519
				4.82755
				4.78329
				4.82175
				4.78979
				4.8253
				4.80097
				4.83233
				4.81214
				4.83676
				4.81847
				4.83764
				4.8886
				4.87364
				4.89317
				4.87469
				4.89974
				4.87691
				4.90447
				4.87993
				4.90915
				4.88613
				4.91777
				4.89667
				4.93212
				4.9124
				4.9517
				4.93366
				4.97466
				4.95905
				4.99834
				4.98632
				5.02022
				5.01269
				5.03853
				5.03573
				5.05247
				5.05404
				5.06195
				5.06724
				5.0672
				5.07554
				5.06849
				5.0793
				5.06594
				5.07871
				5.05945
				5.07371
				5.04877
				5.06401
				5.03372
				5.04922
				5.01439
				5.02914
				4.99153
				5.00419
				4.96677
				4.97581
				4.94255
				4.94657
				4.92152
				4.91971
				4.90578
				4.8982
				4.89628
				4.8837
				4.89273
				4.8761
				4.89343
				4.87377
				4.89465
				4.87442
				4.89273
				4.87561
				4.88918
				4.87503
				4.90348
				4.9114
				4.909
				4.91564
				4.91665
				4.92465
				4.92395
				4.93141
				4.93137
				4.93599
				4.94003
				4.94162
				4.95073
				4.94963
				4.96345
				4.95993
				4.97748
				4.97185
				4.99156
				4.98431
				5.00438
				4.99618
				5.015
				5.00647
				5.02298
				5.01461
				5.02828
				5.02041
				5.03108
				5.02393
				5.03156
				5.02534
				5.02983
				5.02479
				5.02587
				5.02231
				5.01955
				5.01785
				5.01073
				5.0113
				4.99939
				5.00259
				4.98588
				4.99184
				4.97101
				4.97953
				4.95609
				4.96654
				4.94259
				4.95407
				4.93175
				4.9433
				4.92411
				4.93505
				4.91942
				4.92963
				4.91667
				4.92678
				4.9142
				4.92533
				4.90988
				4.92227
				4.90442
				4.9158
				4.91697
				4.91543
				4.92804
				4.91907
				4.93964
				4.92833
				4.94806
				4.9378
				4.95582
				4.94637
				4.96418
				4.95487
				4.97311
				4.96387
				4.98221
				4.97346
				4.99093
				4.98332
				4.99869
				4.99279
				5.00504
				5.00117
				5.00979
				5.00796
				5.013
				5.01295
				5.01485
				5.01622
				5.0156
				5.01799
				5.01542
				5.0185
				5.01442
				5.0179
				5.01258
				5.01625
				5.00981
				5.01348
				5.00592
				5.00944
				5.00076
				5.00394
				4.99424
				4.99689
				4.98649
				4.98839
				4.97791
				4.97888
				4.96908
				4.96904
				4.96065
				4.95966
				4.9531
				4.95133
				4.94665
				4.94428
				4.94121
				4.93836
				4.93565
				4.93303
				4.92714
				4.92716
				4.91729
				4.91992
			</DataArray>
			<DataArray type="Float64" Name="velocity" NumberOfComponents="3" Format="ascii">
				-0.076288 -0.148238 0
				-0.331499 -0.244071 0
				-0.141499 -0.00918624 0
				-0.18885 -0.0672783 0
				0.0354372 0.169178 0
				-0.0766117 -0.00325945 0
				-0.172418 0.128891 0
				-0.110437 0.156212 0
				-0.329219 -0.0146568 0
				-0.249661 0.0554492 0
				-0.19131 -0.0311396 0
				-0.175115 -0.0554806 0
				0.134474 0.121723 0
				0.113907 0.004537 0
				0.372469 0.40373 0
				0.336137 0.210907 0
				0.15634 0.668429 0
				0.401561 0.464286 0
				0.000439718 0.924169 0
				0.373959 0.832878 0
				-0.0945711 0.881332 0
				0.165746 0.963792 0
				-0.0763137 0.673784 0
				0.0225359 0.82122 0
				0.068785 0.374921 0
				0.0209782 0.518454 0
				0.32369 0.0816576 0
				0.172625 0.178951 0
				0.600485 -0.0551715 0
				0.402037 -0.0329004 0
				0.639872 0.0633507 0
				0.543647 -0.0253346 0
				-0.470866 -0.0873593 0
				0.0948891 0.179143 0
				-0.482593 -0.504131 0
				-0.296519 -0.269163 0
				-0.303133 -0.813899 0
				-0.226208 -0.614068 0
				-0.0314916 -1.03042 0
				-0.0177231 -0.867154 0
				0.292656 -1.14389 0
				0.263933 -1.02275 0
				0.632429 -1.14224 0
				0.578386 -1.07104 0
				0.941625 -1.01736 0
				0.882378 -1.00264 0
				1.15949 -0.771119 0
				1.12108 -0.817397 0
				1.216 -0.430542 0
				1.23063 -0.535734 0
				1.07056 -0.0652148 0
				1.16409 -0.209769 0
				0.755566 0.231666 0
				0.927966 0.0861103 0
				0.357929 0.393534 0
				0.581397 0.285554 0
				-0.0322734 0.405923 0
				0.203253 0.356037 0
				-0.351113 0.29646 0
				-0.138577 0.305751 0
				-0.555489 0.108046 0
				-0.397785 0.168623 0
				-0.562825 -0.128412 0
				-0.519656 -0.0230246 0
				-0.226221 -0.0345049 0
				-0.297353 -0.0297298 0
				-0.11518 -0.0648484 0
				-0.205242 -0.0523726 0
				0.0202923 -0.0596189 0
				-0.0736611 -0.0436208 0
				0.12771 -0.0729713 0
				0.0138586 -0.0282667 0
				0.306375 -0.109085 0
				0.0655625 -0.121304 0
				0.575581 -0.0368479 0
				0.276858 -0.156695 0
				0.806926 0.142151 0
				0.569023 -0.02467 0
				0.928405 0.360654 0
				0.777943 0.200568 0
				0.946857 0.664606 0
				0.879066 0.455386 0
				0.771336 0.854652 0
				0.796683 0.822598 0
				0.51961 0.800485 0
				0.525264 0.972546 0
				0.356462 0.56575 0
				0.279611 0.835619 0
				0.339837 0.296363 0
				0.198993 0.528528 0
				0.416145 0.119651 0
				0.293141 0.226824 0
				0.477283 0.0648326 0
				0.439179 0.0702913 0
				0.398094 0.0798771 0
				0.483208 0.0601906 0
				0.230573 -0.0426196 0
				0.221401 0.0471705 0
				0.158566 -0.303455 0
				-0.0334829 -0.211955 0
				0.245106 -0.543602 0
				0.00286635 -0.509658 0
				0.427294 -0.722411 0
				0.180862 -0.745234 0
				0.664397 -0.821068 0
				0.436618 -0.893871 0
				0.919654 -0.827733 0
				0.72785 -0.941549 0
				1.15097 -0.738582 0
				1.01116 -0.880348 0
				1.3106 -0.564569 0
				1.23521 -0.714181 0
				1.35701 -0.336365 0
				1.34625 -0.467364 0
				1.27218 -0.0976886 0
				1.30872 -0.186382 0
				1.06666 0.108665 0
				1.12363 0.0735659 0
				0.774302 0.248346 0
				0.826185 0.263891 0
				0.444082 0.30213 0
				0.473764 0.353683 0
				0.12612 0.272459 0
				0.127859 0.339942 0
				-0.129493 0.176557 0
				-0.160495 0.244338 0
				-0.248543 0.0443503 0
				-0.33154 0.09923 0
				-0.114498 -0.0125648 0
				-0.029492 0.0462878 0
				0.00361392 -0.0942137 0
				0.0164798 -0.0555713 0
				0.197276 -0.138061 0
				0.193114 -0.11422 0
				0.414518 -0.153551 0
				0.415188 -0.129162 0
				0.659726 -0.122045 0
				0.650096 -0.103446 0
				0.90421 -0.00254843 0
				0.883277 -0.0172184 0
				1.07206 0.1777 0
				1.05943 0.123783 0
				1.13163 0.378557 0
				1.1424 0.287913 0
				1.06429 0.575156 0
				1.12768 0.452169 0
				0.883298 0.663615 0
				1.00621 0.546194 0
				0.683681 0.606516 0
				0.836126 0.530526 0
				0.556815 0.44895 0
				0.693334 0.42573 0
				0.521537 0.279775 0
				0.616292 0.292967 0
				0.533266 0.159587 0
				0.593 0.182879 0
				0.536066 0.0906907 0
				0.587921 0.109212 0
				0.484617 0.0347053 0
				0.567695 0.0573332 0
				0.415023 -0.07021 0
				0.53142 -0.0133244 0
				0.38299 -0.231301 0
				0.506745 -0.122861 0
				0.440494 -0.399859 0
				0.52516 -0.261076 0
				0.569645 -0.537426 0
				0.602629 -0.391284 0
				0.746269 -0.622077 0
				0.728437 -0.489593 0
				0.943857 -0.640532 0
				0.885031 -0.540234 0
				1.13126 -0.587749 0
				1.04977 -0.533745 0
				1.27379 -0.47031 0
				1.19522 -0.468946 0
				1.34055 -0.307915 0
				1.29305 -0.355789 0
				1.3131 -0.127968 0
				1.32132 -0.214001 0
				1.18726 0.0422831 0
				1.26866 -0.0660081 0
				0.971631 0.177799 0
				1.13264 0.0685323 0
				0.689693 0.256482 0
				0.919593 0.171608 0
				0.379516 0.265393 0
				0.648702 0.226098 0
				0.0947141 0.205652 0
				0.354697 0.220532 0
				-0.0855318 0.0978788 0
				0.0995909 0.152953 0
				0.233262 -0.0106553 0
				0.137866 0.041398 0
				0.375653 -0.087282 0
				0.186661 -0.0614043 0
				0.607192 -0.104212 0
				0.387033 -0.120863 0
				0.830374 -0.0706302 0
				0.632313 -0.123867 0
				1.00553 -0.000132366 0
				0.858923 -0.0751739 0
				1.11237 0.0901575 0
				1.0343 0.0177165 0
				1.14815 0.181472 0
				1.13331 0.13302 0
				1.12256 0.258187 0
				1.1522 0.2469 0
				1.04938 0.299514 0
				1.0998 0.338353 0
				0.957086 0.298646 0
				0.997906 0.377268 0
				0.872605 0.264105 0
				0.885919 0.35869 0
				0.81009 0.212529 0
				0.795973 0.300003 0
				0.769805 0.157682 0
				0.738484 0.227403 0
				0.744962 0.105729 0
				0.706052 0.158614 0
				0.728318 0.0563776 0
				0.685862 0.0980309 0
				0.717556 0.0044438 0
				0.667637 0.0405726 0
				0.715472 -0.0537089 0
				0.653422 -0.0239461 0
				0.727263 -0.118247 0
				0.651319 -0.099948 0
				0.758729 -0.185237 0
				0.671158 -0.184693 0
				0.81323 -0.245472 0
				0.722316 -0.266379 0
				0.888443 -0.289464 0
				0.8033 -0.331837 0
				0.977317 -0.309139 0
				0.906312 -0.369946 0
				1.06861 -0.299432 0
				1.01864 -0.372893 0
				1.14828 -0.260228 0
				1.12356 -0.338112 0
				1.20257 -0.197287 0
				1.20308 -0.27009 0
				1.22096 -0.120298 0
				1.24208 -0.179519 0
				1.19573 -0.0388341 0
				1.23024 -0.0790455 0
				1.11796 0.0397325 0
				1.15927 0.0203032 0
				0.976586 0.107442 0
				1.02074 0.107505 0
				0.76624 0.151293 0
				0.811469 0.16768 0
				0.507656 0.15162 0
				0.546487 0.182814 0
				0.286705 0.0905608 0
				0.284585 0.137991 0
				0.395674 -0.0148491 0
				0.472433 0.0278332 0
				0.543863 -0.0753921 0
				0.533423 -0.0463441 0
				0.763115 -0.077739 0
				0.728138 -0.067611 0
				0.943818 -0.0379268 0
				0.913331 -0.040382 0
				1.057 0.021899 0
				1.03317 0.0065082 0
				1.1067 0.0846162 0
				1.09027 0.0561322 0
				1.10755 0.139243 0
				1.10112 0.100057 0
				1.07465 0.178739 0
				1.08129 0.133816 0
				1.02249 0.196862 0
				1.04264 0.153254 0
				0.965675 0.19438 0
				0.996675 0.157636 0
				0.914381 0.175896 0
				0.952071 0.14879 0
				0.873403 0.147319 0
				0.914006 0.130071 0
				0.843377 0.113455 0
				0.884478 0.105019 0
				0.822809 0.0772373 0
				0.863367 0.0764763 0
				0.809831 0.0397348 0
				0.849648 0.0461403 0
				0.803935 0.000675728 0
				0.84254 0.0145573 0
				0.805771 -0.0400394 0
				0.841952 -0.0180368 0
				0.816816 -0.0817793 0
				0.84843 -0.0512531 0
				0.83886 -0.122761 0
				0.86296 -0.0841954 0
				0.873408 -0.159401 0
				0.886608 -0.115107 0
				0.919901 -0.187071 0
				0.919816 -0.141009 0
				0.975215 -0.201134 0
				0.961434 -0.158298 0
				1.03357 -0.198197 0
				1.00823 -0.163614 0
				1.0872 -0.17748 0
				1.05496 -0.15498 0
				1.12807 -0.141546 0
				1.09526 -0.132834 0
				1.14955 -0.0953958 0
				1.12321 -0.100198 0
				1.14612 -0.0441352 0
				1.13425 -0.0614121 0
				1.10974 0.00875911 0
				1.12367 -0.0200792 0
				1.02557 0.0599326 0
				1.08214 0.0220765 0
				0.87379 0.101166 0
				0.991176 0.0633132 0
				0.653018 0.112931 0
				0.82839 0.0951223 0
				0.443688 0.0694806 0
				0.612749 0.0907031 0
				0.672254 -0.0128574 0
				0.602035 0.0179673 0
				0.802226 -0.043184 0
				0.66444 -0.0387316 0
				0.949564 -0.0262453 0
				0.837294 -0.0477825 0
				1.03182 0.00386306 0
				0.977339 -0.0198693 0
				1.06114 0.0298527 0
				1.04837 0.0156427 0
				1.06258 0.0501546 0
				1.07124 0.0469434 0
				1.05035 0.065547 0
				1.06727 0.0715579 0
				1.03101 0.0758772 0
				1.04895 0.0891821 0
				1.00844 0.0806955 0
				1.02325 0.0991926 0
				0.985384 0.0796639 0
				0.99493 0.10158 0
				0.964107 0.0731302 0
				0.967441 0.096688 0
				0.946205 0.0621632 0
				0.943264 0.0855938 0
				0.932459 0.048143 0
				0.923827 0.069909 0
				0.922989 0.0322926 0
				0.909564 0.0512901 0
				0.917609 0.0154717 0
				0.900307 0.0310035 0
				0.91611 -0.00175373 0
				0.895775 0.00983397 0
				0.918416 -0.0189785 0
				0.895824 -0.0117027 0
				0.924633 -0.0357894 0
				0.900555 -0.0331525 0
				0.934991 -0.0515998 0
				0.910283 -0.0539009 0
				0.949689 -0.0655144 0
				0.925376 -0.0729829 0
				0.968615 -0.0762563 0
				0.945982 -0.0889229 0
				0.990988 -0.0823287 0
				0.971552 -0.099846 0
				1.01513 -0.0824181 0
				1.00046 -0.103878 0
				1.03853 -0.0759496 0
				1.02995 -0.0997939 0
				1.05843 -0.0634966 0
				1.05652 -0.0876461 0
				1.07248 -0.0466887 0
				1.07683 -0.0689465 0
				1.07889 -0.0275013 0
				1.08828 -0.0460521 0
				1.07513 -0.0071606 0
				1.08819 -0.0209472 0
				1.05332 0.0149213 0
				1.07049 0.0058772 0
				0.991726 0.040634 0
				1.01895 0.0350215 0
				0.860669 0.0619314 0
				0.90375 0.0626475 0
				0.703122 0.0447302 0
				0.724705 0.0653575 0
				0.771763 -0.01286 0
				0.810075 0.0103825 0
				0.880811 -0.0339774 0
				0.859521 -0.0275484 0
				0.989211 -0.0176762 0
				0.965012 -0.0255431 0
				1.0368 0.00445314 0
				1.02529 -0.00562364 0
				1.04706 0.020654 0
				1.04147 0.00962161 0
				1.04274 0.0324111 0
				1.04007 0.0200435 0
				1.03267 0.041341 0
				1.03279 0.0281376 0
				1.0197 0.0475807 0
				1.02288 0.0344198 0
				1.00528 0.0506747 0
				1.01143 0.03847 0
				0.990668 0.0502048 0
				0.999348 0.0397472 0
				0.977172 0.0462881 0
				0.987695 0.038107 0
				0.965775 0.0395515 0
				0.977419 0.0338907 0
				0.956988 0.0308374 0
				0.969132 0.0277286 0
				0.950926 0.0209186 0
				0.963076 0.0202878 0
				0.947489 0.0103742 0
				0.959248 0.0121199 0
				0.946538 -0.000399684 0
				0.95754 0.00362558 0
				0.947994 -0.0111195 0
				0.95785 -0.00491411 0
				0.951883 -0.0215151 0
				0.960146 -0.0132713 0
				0.958306 -0.031232 0