<VTKFile type="UnstructuredGrid" version="0.1" byte_order="LittleEndian">
<UnstructuredGrid>
	<Piece NumberOfPoints="80" NumberOfCells="128">
		<CellData Scalars="density" Vectors="velocity">
			<DataArray type="Float64" Name="density" Format="ascii">
				0.920501
				0.944431
				0.912439
				0.929047
				0.870257
				0.927156
				0.874592
				0.917326
				0.903622
				0.927933
				0.98379
				0.972379
				1.04319
				1.0204
				1.08318
				1.0597
				1.08318
				1.07371
				1.04319
				1.0597
				0.98379
				1.0204
				0.903622
				0.972379
				0.874592
				0.927933
				0.870257
				0.917326
				0.912439
				0.927156
				0.920501
				0.929047
				0.979497
				0.965521
				0.987325
				0.981124
				0.984539
				0.972727
				0.981843
				0.965931
				0.987867
				0.969331
				1.00074
				0.99035
				1.01276
				1.00185
				1.02119
				1.01698
				1.02119
				1.02401
				1.01276
				1.01698
				1.00074
				1.00185
				0.987867
				0.99035
				0.981843
				0.969331
				0.984539
				0.965931
				0.987325
				0.972727
				0.979497
				0.981124
				0.977535
				0.98639
				0.992306
				0.99205
				0.990644
				0.993961
				0.991774
				0.995351
				0.996104
				0.996028
				0.999466
				0.997423
				1.00259
				1.00152
				1.00566
				1.00335
				1.00566
				1.00334
				1.00259
				1.00335
				0.999466
				1.00152
				0.996104
				0.997423
				0.991774
				0.996028
				0.990644
				0.995351
				0.992306
				0.993961
				0.977535
				0.99205
				0.991809
				0.987409
				0.999048
				0.996558
				1.00076
				0.998919
				1.00098
				0.99902
				1.00182
				0.999914
				1.00274
				1.00119
				1.00345
				1.00268
				1.00383
				1.00359
				1.00383
				1.00383
				1.00345
				1.00359
				1.00274
				1.00268
				1.00182
				1.00119
				1.00098
				0.999914
				1.00076
				0.99902
				0.999048
				0.998919
				0.991809
				0.996558
			</DataArray>
			<DataArray type="Float64" Name="mach-number" Format="ascii">
				0.113871
				0.142359
				0.277315
				0.230115
				0.453223
				0.368576
				0.538451
				0.480531
				0.536837
				0.521932
				0.433428
				0.471872
				0.288579
				0.369522
				0.14024
				0.254541
				0.14024
				0.194424
				0.288579
				0.254541
				0.433428
				0.369522
				0.536837
				0.471872
				0.538451
				0.521932
				0.453223
				0.480531
				0.277315
				0.368576
				0.113871
				0.230115
				0.281584
				0.222746
				0.342274
				0.279781
				0.388623
				0.358792
				0.412961
				0.412367
				0.408296
				0.429644
				0.381376
				0.40173
				0.346269
				0.352467
				0.323202
				0.301347
				0.323202
				0.279587
				0.346269
				0.301347
				0.381376
				0.352467
				0.408296
				0.40173
				0.412961
				0.429644
				0.388623
				0.412367
				0.342274
				0.358792
				0.281584
				0.279781
				0.324363
				0.333923
				0.361128
				0.35611
				0.383722
				0.377714
				0.39176
				0.387307
				0.386605
				0.387592
				0.376269
				0.382201
				0.363667
				0.374151
				0.356081
				0.367984
				0.356081
				0.365747
				0.363667
				0.367984
				0.376269
				0.374151
				0.386605
				0.382201
				0.39176
				0.387592
				0.383722
				0.387307
				0.361127
				0.377714
				0.324363
				0.35611
				0.368527
				0.353901
				0.379725
				0.37072
				0.383893
				0.383423
				0.383536
				0.385904
				0.381353
				0.384246
				0.378591
				0.380451
				0.376307
				0.376285
				0.375108
				0.373388
				0.375108
				0.372398
				0.376307
				0.373388
				0.378591
				0.376285
				0.381353
				0.380451
				0.383536
				0.384246
				0.383893
				0.385904
				0.379725
				0.383423
				0.368527
				0.37072
			</DataArray>
			<DataArray type="Float64" Name="pressure" Format="ascii">
				4.64845
				4.80093
				4.52208
				4.64188
				4.19241
				4.56203
				4.1719
				4.44827
				4.33317
				4.48896
				4.85106
				4.77105
				5.27975
				5.10775
				5.5766
				5.38143
				5.5766
				5.4835
				5.27975
				5.38143
				4.85106
				5.10775
				4.33317
				4.77105
				4.1719
				4.48896
				4.19241
				4.44827
				4.52208
				4.56203
				4.64845
				4.64188
				4.93756
				4.90232
				4.9162
				4.92008
				4.87157
				4.81864
				4.83863
				4.74946
				4.87485
				4.75799
				4.95019
				4.88455
				5.03542
				4.97128
				5.08575
				5.07509
				5.08575
				5.12395
				5.03542
				5.07509
				4.95019
				4.97128
				4.87485
				4.88455
				4.83863
				4.75799
				4.87157
				4.74946
				4.9162
				4.81864
				4.93756
				4.92008
				4.91228
				4.96925
				4.93304
				4.94998
				4.90962
				4.93224
				4.90535
				4.92679
				4.93003
				4.92222
				4.94483
				4.93285
				4.96908
				4.95858
				4.98655
				4.97365
				4.98655
				4.97709
				4.96908
				4.97365
				4.94483
				4.95858
				4.93003
				4.93285
				4.90535
				4.92222
				4.90962
				4.92679
				4.93304
				4.93224
				4.91228
				4.94998
				4.93345
				4.9409
				4.93987
				4.93605
				4.94673
				4.93881
				4.95004
				4.93779
				4.95672
				4.94403
				4.96358
				4.95365
				4.96892
				4.96402
				4.97169
				4.97089
				4.97169
				4.97311
				4.96892
				4.97089
				4.96358
				4.96402
				4.95672
				4.95365
				4.95004
				4.94403
				4.94673
				4.93779
				4.93987
				4.93881
				4.93345
				4.93605
			</DataArray>
			<DataArray type="Float64" Name="velocity" NumberOfComponents="3" Format="ascii">
				0.270284 -0.136452 0.0 
				0.379776 -2.7819e-07 0.0 
				0.604954 -0.409416 0.0 
				0.565561 -0.224817 0.0 
				1.08472 -0.456909 0.0 
				0.914017 -0.316836 0.0 
				1.3868 -0.113921 0.0 
				1.23705 -0.193203 0.0 
				1.36034 0.290286 0.0 
				1.35582 0.0818897 0.0 
				1.00209 0.541012 0.0 
				1.18813 0.343306 0.0 
				0.592066 0.489417 0.0 
				0.883325 0.420279 0.0 
				0.324368 0.191158 0.0 
				0.62094 0.273986 0.0 
				0.324368 -0.191158 0.0 
				0.519876 1.29749e-08 0.0 
				0.592066 -0.489417 0.0 
				0.620939 -0.273986 0.0 
				1.00209 -0.541012 0.0 
				0.883325 -0.420279 0.0 
				1.36034 -0.290285 0.0 
				1.18813 -0.343306 0.0 
				1.3868 0.113921 0.0 
				1.35582 -0.0818897 0.0 
				1.08472 0.456909 0.0 
				1.23705 0.193203 0.0 
				0.604954 0.409416 0.0 
				0.914017 0.316836 0.0 
				0.270284 0.136451 0.0 
				0.565561 0.224817 0.0 
				0.746376 -0.0499118 0.0 
				0.593874 -2.90146e-07 0.0 
				0.899753 -0.0843328 0.0 
				0.732018 -0.117081 0.0 
				1.02114 -0.0591367 0.0 
				0.933708 -0.144818 0.0 
				1.08463 0.0127553 0.0 
				1.07968 -0.0697038 0.0 
				1.06896 0.0950631 0.0 
				1.12453 0.0629353 0.0 
				0.994527 0.134757 0.0 
				1.04044 0.178502 0.0 
				0.906927 0.10998 0.0 
				0.907547 0.198491 0.0 
				0.852413 0.0414321 0.0 
				0.786229 0.127623 0.0 
				0.852413 -0.041432 0.0 
				0.739998 3.50667e-08 0.0 
				0.906927 -0.109979 0.0 
				0.786229 -0.127623 0.0 
				0.994527 -0.134757 0.0 
				0.907547 -0.198491 0.0 
				1.06896 -0.095063 0.0 
				1.04044 -0.178502 0.0 
				1.08463 -0.0127553 0.0 
				1.12453 -0.0629353 0.0 
				1.02114 0.0591366 0.0 
				1.07968 0.0697038 0.0 
				0.899753 0.0843327 0.0 
				0.933708 0.144818 0.0 
				0.746376 0.0499117 0.0 
				0.732018 0.117081 0.0 
				0.860091 -0.0207236 0.0 
				0.886812 -8.17496e-08 0.0 
				0.952255 -0.0293427 0.0 
				0.940924 -0.0228844 0.0 
				1.01066 -0.014064 0.0 
				0.995498 -0.0105323 0.0 
				1.03073 0.0182422 0.0 
				1.01954 0.00681922 0.0 
				1.01661 0.0463 0.0 
				1.01918 0.0252211 0.0 
				0.98873 0.0552283 0.0 
				1.00507 0.0355264 0.0 
				0.956988 0.0430413 0.0 
				0.984529 0.0321083 0.0 
				0.938062 0.0150983 0.0 
				0.969222 0.0187622 0.0 
				0.938062 -0.0150983 0.0 
				0.96385 1.26753e-08 0.0 
				0.956988 -0.0430413 0.0 
				0.969222 -0.0187621 0.0 
				0.98873 -0.0552282 0.0 
				0.984529 -0.0321083 0.0 
				1.01661 -0.0463 0.0 
				1.00507 -0.0355264 0.0 
				1.03073 -0.0182422 0.0 
				1.01918 -0.0252211 0.0 
				1.01066 0.0140639 0.0 
				1.01954 -0.00681925 0.0 
				0.952255 0.0293427 0.0 
				0.995498 0.0105323 0.0 
				0.860091 0.0207235 0.0 
				0.940924 0.0228844 0.0 
				0.972469 -0.00912281 0.0 
				0.936699 -1.71017e-08 0.0 
				0.999023 -0.0101355 0.0 
				0.976027 -0.0194911 0.0 
				1.00988 -0.00113131 0.0 
				1.00874 -0.00667464 0.0 
				1.00915 0.00541495 0.0 
				1.01512 0.00385747 0.0 
				1.00363 0.00984302 0.0 
				1.01087 0.0131919 0.0 
				0.996581 0.0105992 0.0 
				1.00115 0.0173947 0.0 
				0.990776 0.00775994 0.0 
				0.990519 0.0154797 0.0 
				0.987736 0.00279162 0.0 
				0.983212 0.00882725 0.0 
				0.987736 -0.00279161 0.0 
				0.980742 5.17638e-09 0.0 
				0.990776 -0.00775993 0.0 
				0.983212 -0.00882724 0.0 
				0.996581 -0.0105992 0.0 
				0.990519 -0.0154796 0.0 
				1.00363 -0.00984302 0.0 
				1.00115 -0.0173947 0.0 
				1.00915 -0.00541496 0.0 
				1.01087 -0.0131919 0.0 
				1.00988 0.0011313 0.0 
				1.01512 -0.00385749 0.0 
				0.999023 0.0101354 0.0 
				1.00874 0.00667462 0.0 
				0.972469 0.0091228 0.0 
				0.976027 0.0194911 0.0 
			</DataArray>
		</CellData>
		<Points>
		<DataArray type="Float64" NumberOfComponents="3" Format="ascii">
			0.5 0 0.0 
			0.46194 0.191342 0.0 
			0.353553 0.353553 0.0 
			0.191342 0.46194 0.0 
			-2.18557e-08 0.5 0.0 
			-0.191342 0.46194 0.0 
			-0.353553 0.353553 0.0 
			-0.46194 0.191342 0.0 
			-0.5 -4.37114e-08 0.0 
			-0.46194 -0.191342 0.0 
			-0.353553 -0.353553 0.0 
			-0.191342 -0.46194 0.0 
			6.55671e-08 -0.5 0.0 
			0.191342 -0.46194 0.0 
			0.353553 -0.353553 0.0 
			0.46194 -0.191342 0.0 
			0.884503 0.175939 0.0 
			0.749846 0.501031 0.0 
			0.501031 0.749846 0.0 
			0.175939 0.884503 0.0 
			-0.175939 0.884503 0.0 
			-0.501031 0.749846 0.0 
			-0.749846 0.501031 0.0 
			-0.884503 0.175939 0.0 
			-0.884503 -0.175939 0.0 
			-0.749846 -0.501031 0.0 
			-0.501031 -0.749846 0.0 
			-0.175939 -0.884503 0.0 
			0.175939 -0.884503 0.0 
			0.501031 -0.749846 0.0 
			0.749846 -0.501031 0.0 
			0.884503 -0.175938 0.0 
			2.20148 0 0.0 
			2.0339 0.842468 0.0 
			1.55668 1.55668 0.0 
			0.842468 2.0339 0.0 
			-9.62295e-08 2.20148 0.0 
			-0.842468 2.0339 0.0 
			-1.55668 1.55668 0.0 
			-2.0339 0.842468 0.0 
			-2.20148 -1.92459e-07 0.0 
			-2.0339 -0.842468 0.0 
			-1.55668 -1.55668 0.0 
			-0.842468 -2.0339 0.0 
			2.88689e-07 -2.20148 0.0 
			0.842468 -2.0339 0.0 
			1.55668 -1.55668 0.0 
			2.0339 -0.842468 0.0 
			6.28184 1.24954 0.0 
			5.32549 3.55838 0.0 
			3.55838 5.32549 0.0 
			1.24954 6.28184 0.0 
			-1.24954 6.28184 0.0 
			-3.55838 5.32549 0.0 
			-5.32549 3.55838 0.0 
			-6.28184 1.24954 0.0 
			-6.28184 -1.24954 0.0 
			-5.32549 -3.55838 0.0 
			-3.55838 -5.32549 0.0 
			-1.24954 -6.28184 0.0 
			1.24954 -6.28184 0.0 
			3.55838 -5.32549 0.0 
			5.32549 -3.55838 0.0 
			6.28184 -1.24953 0.0 
			20.0001 0 0.0 
			18.4777 7.6537 0.0 
			14.1422 14.1422 0.0 
			7.6537 18.4777 0.0 
			-8.74231e-07 20.0001 0.0 
			-7.6537 18.4777 0.0 
			-14.1422 14.1422 0.0 
			-18.4777 7.65369 0.0 
			-20.0001 -1.74846e-06 0.0 
			-18.4777 -7.6537 0.0 
			-14.1422 -14.1422 0.0 
			-7.65369 -18.4777 0.0 
			2.62269e-06 -20.0001 0.0 
			7.6537 -18.4777 0.0 
			14.1422 -14.1422 0.0 
			18.4777 -7.65369 0.0 
		</DataArray>
		</Points>
		<Cells>
			<DataArray type="UInt32" Name="connectivity" Format="ascii">
				0 16 1 
				0 31 16 
				1 17 2 
				1 16 17 
				2 18 3 
				2 17 18 
				3 19 4 
				3 18 19 
				4 20 5 
				4 19 20 
				5 21 6 
				5 20 21 
				6 22 7 
				6 21 22 
				7 23 8 
				7 22 23 
				8 24 9 
				8 23 24 
				9 25 10 
				9 24 25 
				10 26 11 
				10 25 26 
				11 27 12 
				11 26 27 
				12 28 13 
				12 27 28 
				13 29 14 
				13 28 29 
				14 30 15 
				14 29 30 
				15 31 0 
				15 30 31 
				16 32 33 
				16 31 32 
				17 33 34 
				17 16 33 
				18 34 35 
				18 17 34 
				19 35 36 
				19 18 35 
				20 36 37 
				20 19 36 
				21 37 38 
				21 20 37 
				22 38 39 
				22 21 38 
				23 39 40 
				23 22 39 
				24 40 41 
				24 23 40 
				25 41 42 
				25 24 41 
				26 42 43 
				26 25 42 
				27 43 44 
				27 26 43 
				28 44 45 
				28 27 44 
				29 45 46 
				29 28 45 
				30 46 47 
				30 29 46 
				31 47 32 
				31 30 47 
				32 48 33 
				32 63 48 
				33 49 34 
				33 48 49 
				34 50 35 
				34 49 50 
				35 51 36 
				35 50 51 
				36 52 37 
				36 51 52 
				37 53 38 
				37 52 53 
				38 54 39 
				38 53 54 
				39 55 40 
				39 54 55 
				40 56 41 
				40 55 56 
				41 57 42 
				41 56 57 
				42 58 43 
				42 57 58 
				43 59 44 
				43 58 59 
				44 60 45 
				44 59 60 
				45 61 46 
				45 60 61 
				46 62 47 
				46 61 62 
				47 63 32 
				47 62 63 
				48 64 65 
				48 63 64 
				49 65 66 
				49 48 65 
				50 66 67 
				50 49 66 
				51 67 68 
				51 50 67 
				52 68 69 
				52 51 68 
				53 69 70 
				53 52 69 
				54 70 71 
				54 53 70 
				55 71 72 
				55 54 71 
				56 72 73 
				56 55 72 
				57 73 74 
				57 56 73 
				58 74 75 
				58 57 74 
				59 75 76 
				59 58 75 
				60 76 77 
				60 59 76 
				61 77 78 
				61 60 77 
				62 78 79 
				62 61 78 
				63 79 64 
				63 62 79 
			</DataArray>
			<DataArray type="UInt32" Name="offsets" Format="ascii">
				3
				6
				9
				12
				15
				18
				21
				24
				27
				30
				33
				36
				39
				42
				45
				48
				51
				54
				57
				60
				63
				66
				69
				72
				75
				78
				81
				84
				87
				90
				93
				96
				99
				102
				105
				108
				111
				114
				117
				120
				123
				126
				129
				132
				135
				138
				141
				144
				147
				150
				153
				156
				159
				162
				165
				168
				171
				174
				177
				180
				183
				186
				189
				192
				195
				198
				201
				204
				207
				210
				213
				216
				219
				222
				225
				228
				231
				234
				237
				240
				243
				246
				249
				252
				255
				258
				261
				264
				267
				270
				273
				276
				279
				282
				285
				288
				291
				294
				297
				300
				303
				306
				309
				312
				315
				318
				321
				324
				327
				330
				333
				336
				339
				342
				345
				348
				351
				354
				357
				360
				363
				366
				369
				372
				375
				378
				381
				384
			</DataArray>
			<DataArray type="Int32" Name="types" Format="ascii">
				5
				5
				5
				5
				5
				5
				5
				5
				5
				5
				5
				5
				5
				5
				5
				5
				5
				5
				5
				5
				5
				5
				5
				5
				5
				5
				5
				5
				5
				5
				5
				5
				5
				5
				5
				5
				5
				5
				5
				5
				5
				5
				5
				5
				5
				5
				5
				5
				5
				5
				5
				5
				5
				5
				5
				5
				5
				5
				5
				5
				5
				5
				5
				5
				5
				5
				5
				5
				5
				5
				5
				5
				5
				5
				5
				5
				5
				5
				5
				5
				5
				5
				5
				5
				5
				5
				5
				5
				5
				5
				5
				5
				5
				5
				5
				5
				5
				5
				5
				5
				5
				5
				5
				5
				5
				5
				5
				5
				5
				5
				5
				5
				5
				5
				5
				5
				5
				5
				5
				5
				5
				5
				5
				5
				5
				5
				5
				5
			</DataArray>
		</Cells>
	</Piece>
</UnstructuredGrid>
</VTKFile>