<VTKFile type="UnstructuredGrid" version="0.1" byte_order="LittleEndian">
<UnstructuredGrid>
	<Piece NumberOfPoints="80" NumberOfCells="128">
		<CellData Scalars="density" Vectors="velocity">
			<DataArray type="Float64" Name="density" Format="ascii">
				0.895837
				0.919859
				0.889617
				0.921555
				0.877071
				0.920835
				0.87761
				0.918514
				0.917659
				0.932551
				0.990463
				0.973099
				1.06072
				1.02437
				1.10131
				1.0642
				1.10131
				1.07895
				1.06072
				1.0642
				0.990463
				1.02437
				0.917659
				0.973099
				0.87761
				0.932551
				0.877071
				0.918514
				0.889617
				0.920835
				0.895837
				0.921555
				0.971496
				0.954867
				0.978903
				0.959443
				0.981244
				0.963852
				0.98194
				0.964846
				0.989331
				0.972411
				1.00291
				0.991022
				1.01595
				1.01283
				1.02339
				1.02854
				1.02339
				1.03404
				1.01595
				1.02854
				1.00291
				1.01283
				0.989331
				0.991022
				0.98194
				0.972411
				0.981244
				0.964846
				0.978903
				0.963852
				0.971496
				0.959443
				0.979156
				0.985858
				0.987147
				0.990324
				0.991675
				0.995084
				0.994563
				0.996477
				0.999047
				0.998285
				1.00444
				1.00153
				1.00872
				1.00499
				1.0109
				1.00736
				1.0109
				1.00817
				1.00872
				1.00736
				1.00444
				1.00499
				0.999047
				1.00153
				0.994563
				0.998285
				0.991675
				0.996477
				0.987147
				0.995084
				0.979156
				0.990324
				0.993895
				0.989771
				0.997478
				0.993456
				0.999446
				0.997565
				1.00063
				0.999409
				1.00185
				1.00097
				1.00295
				1.00256
				1.00371
				1.00381
				1.00406
				1.00453
				1.00406
				1.00475
				1.00371
				1.00453
				1.00295
				1.00381
				1.00185
				1.00256
				1.00063
				1.00097
				0.999446
				0.999409
				0.997478
				0.997565
				0.993895
				0.993456
			</DataArray>
			<DataArray type="Float64" Name="mach-number" Format="ascii">
				0.0953926
				0.133192
				0.233667
				0.20344
				0.380721
				0.329366
				0.481221
				0.438464
				0.484233
				0.483474
				0.394998
				0.444645
				0.257232
				0.346778
				0.110177
				0.232564
				0.110177
				0.170691
				0.257232
				0.232564
				0.394998
				0.346778
				0.484233
				0.444645
				0.481221
				0.483474
				0.380721
				0.438464
				0.233667
				0.329366
				0.0953924
				0.20344
				0.268419
				0.212517
				0.329139
				0.259875
				0.38535
				0.343333
				0.4124
				0.403711
				0.405764
				0.420897
				0.373566
				0.392867
				0.335893
				0.337855
				0.311836
				0.284724
				0.311836
				0.262269
				0.335893
				0.284724
				0.373566
				0.337855
				0.405764
				0.392867
				0.4124
				0.420897
				0.38535
				0.403711
				0.329139
				0.343333
				0.268419
				0.259875
				0.32034
				0.333297
				0.358186
				0.352992
				0.384911
				0.379111
				0.392062
				0.38933
				0.385283
				0.388053
				0.371225
				0.380034
				0.357854
				0.370542
				0.350337
				0.363828
				0.350337
				0.361511
				0.357854
				0.363828
				0.371225
				0.370542
				0.385283
				0.380034
				0.392062
				0.388053
				0.384911
				0.38933
				0.358186
				0.379111
				0.32034
				0.352992
				0.369996
				0.35835
				0.379726
				0.369664
				0.383988
				0.382409
				0.383437
				0.385103
				0.38104
				0.382945
				0.378302
				0.379048
				0.376225
				0.375355
				0.37518
				0.372984
				0.37518
				0.372196
				0.376225
				0.372984
				0.378302
				0.375355
				0.38104
				0.379048
				0.383437
				0.382945
				0.383988
				0.385103
				0.379726
				0.382409
				0.369996
				0.369663
			</DataArray>
			<DataArray type="Float64" Name="pressure" Format="ascii">
				4.53778
				4.68215
				4.43841
				4.65365
				4.29291
				4.57587
				4.2487
				4.50479
				4.48447
				4.57072
				4.96585
				4.83772
				5.45806
				5.19226
				5.75507
				5.47254
				5.75507
				5.57652
				5.45806
				5.47254
				4.96585
				5.19226
				4.48447
				4.83772
				4.2487
				4.57072
				4.29291
				4.50479
				4.43841
				4.57587
				4.53778
				4.65365
				4.90912
				4.83925
				4.89391
				4.82626
				4.86366
				4.78953
				4.85163
				4.75973
				4.89731
				4.79579
				4.98921
				4.91805
				5.07843
				5.06889
				5.12929
				5.18012
				5.12929
				5.21949
				5.07843
				5.18012
				4.98921
				5.06889
				4.89731
				4.91805
				4.85163
				4.79579
				4.86366
				4.75973
				4.89391
				4.78953
				4.90912
				4.82626
				4.89421
				4.92842
				4.90071
				4.92968
				4.90504
				4.92867
				4.9165
				4.92776
				4.94435
				4.93738
				4.9805
				4.95867
				5.0098
				4.98201
				5.02486
				4.99818
				5.02486
				5.00372
				5.0098
				4.99818
				4.9805
				4.98201
				4.94435
				4.95867
				4.9165
				4.93738
				4.90504
				4.92776
				4.90071
				4.92867
				4.89421
				4.92968
				4.9304
				4.91793
				4.93674
				4.9246
				4.94303
				4.93447
				4.94978
				4.94259
				4.95782
				4.95225
				4.96537
				4.96294
				4.9706
				4.97159
				4.9731
				4.9766
				4.9731
				4.97817
				4.9706
				4.9766
				4.96537
				4.97159
				4.95782
				4.96294
				4.94978
				4.95225
				4.94303
				4.94259
				4.93674
				4.93447
				4.9304
				4.9246
			</DataArray>
			<DataArray type="Float64" Name="velocity" NumberOfComponents="3" Format="ascii">
				0.202576 -0.153279 0
				0.355552 -2.40714e-07 0
				0.482419 -0.38554 0
				0.494843 -0.218472 0
				0.91481 -0.395444 0
				0.817186 -0.294807 0
				1.24645 -0.1261 0
				1.13635 -0.169501 0
				1.23761 0.269353 0
				1.26177 0.108953 0
				0.909423 0.517784 0
				1.11559 0.362667 0
				0.497905 0.478286 0
				0.819657 0.426057 0
				0.228485 0.191319 0
				0.559356 0.276597 0
				0.228485 -0.191319 0
				0.45915 -3.38161e-08 0
				0.497905 -0.478286 0
				0.559356 -0.276597 0
				0.909423 -0.517784 0
				0.819657 -0.426057 0
				1.23761 -0.269353 0
				1.11559 -0.362667 0
				1.24645 0.1261 0
				1.26177 -0.108953 0
				0.91481 0.395444 0
				1.13635 0.169501 0
				0.482419 0.38554 0
				0.817186 0.294807 0
				0.202576 0.153278 0
				0.494843 0.218472 0
				0.711884 -0.0540806 0
				0.566076 -2.02338e-08 0
				0.865148 -0.098759 0
				0.677584 -0.128406 0
				1.01355 -0.0561489 0
				0.893834 -0.145294 0
				1.08415 0.0324653 0
				1.05946 -0.0563357 0
				1.06125 0.121521 0
				1.1026 0.0863398 0
				0.973039 0.158504 0
				1.01598 0.200271 0
				0.879524 0.126483 0
				0.8674 0.21768 0
				0.824682 0.047276 0
				0.743603 0.136591 0
				0.824682 -0.047276 0
				0.697196 -1.06086e-08 0
				0.879524 -0.126483 0
				0.743603 -0.136591 0
				0.973039 -0.158504 0
				0.8674 -0.21768 0
				1.06125 -0.121521 0
				1.01598 -0.200271 0
				1.08415 -0.0324653 0
				1.1026 -0.0863398 0
				1.01355 0.0561489 0
				1.05946 0.0563357 0
				0.865148 0.098759 0
				0.893834 0.145294 0
				0.711884 0.0540806 0
				0.677584 0.128406 0
				0.84692 -0.0286467 0
				0.881743 -8.85135e-08 0
				0.943353 -0.0423541 0
				0.931368 -0.0302225 0
				1.01282 -0.0116209 0
				0.998189 -0.0155006 0
				1.03105 0.0271309 0
				1.02435 0.0107861 0
				1.01256 0.0568901 0
				1.02059 0.0329676 0
				0.975965 0.0642976 0
				0.999603 0.0433411 0
				0.94239 0.0480478 0
				0.975421 0.0380524 0
				0.924019 0.0174524 0
				0.958659 0.0214533 0
				0.924019 -0.0174524 0
				0.952937 2.50829e-10 0
				0.94239 -0.0480477 0
				0.958659 -0.0214533 0
				0.975965 -0.0642976 0
				0.975421 -0.0380524 0
				1.01256 -0.0568901 0
				0.999603 -0.0433411 0
				1.03105 -0.0271309 0
				1.02059 -0.0329676 0
				1.01282 0.0116209 0
				1.02435 -0.0107862 0
				0.943353 0.0423541 0
				0.998189 0.0155006 0
				0.84692 0.0286465 0
				0.931368 0.0302225 0
				0.97502 -0.0091017 0
				0.945137 -1.3293e-08 0
				0.999486 -0.0110082 0
				0.973666 -0.0176655 0
				1.01041 -0.00137746 0
				1.0063 -0.00766562 0
				1.00903 0.0063731 0
				1.0133 0.00585414 0
				1.00289 0.0104684 0
				1.00773 0.0145628 0
				0.995895 0.0104807 0
				0.997712 0.0174431 0
				0.990605 0.00733085 0
				0.98828 0.0145823 0
				0.98795 0.00258754 0
				0.982257 0.00804091 0
				0.98795 -0.00258753 0
				0.980263 1.03256e-09 0
				0.990605 -0.00733085 0
				0.982257 -0.00804091 0
				0.995895 -0.0104807 0
				0.98828 -0.0145823 0
				1.00289 -0.0104684 0
				0.997712 -0.0174431 0
				1.00903 -0.0063731 0
				1.00773 -0.0145628 0
				1.01041 0.00137745 0
				1.0133 -0.00585414 0
				0.999486 0.0110083 0
				1.0063 0.00766562 0
				0.97502 0.00910167 0
				0.973666 0.0176655 0
			</DataArray>
		</CellData>
		<Points>
		<DataArray type="Float64" NumberOfComponents="3" Format="ascii">
			0.5 0 0
			0.46194 0.191342 0
			0.353553 0.353553 0
			0.191342 0.46194 0
			-2.18557e-08 0.5 0
			-0.191342 0.46194 0
			-0.353553 0.353553 0
			-0.46194 0.191342 0
			-0.5 -4.37114e-08 0
			-0.46194 -0.191342 0
			-0.353553 -0.353553 0
			-0.191342 -0.46194 0
			6.55671e-08 -0.5 0
			0.191342 -0.46194 0
			0.353553 -0.353553 0
			0.46194 -0.191342 0
			0.884503 0.175939 0
			0.749846 0.501031 0
			0.501031 0.749846 0
			0.175939 0.884503 0
			-0.175939 0.884503 0
			-0.501031 0.749846 0
			-0.749846 0.501031 0
			-0.884503 0.175939 0
			-0.884503 -0.175939 0
			-0.749846 -0.501031 0
			-0.501031 -0.749846 0
			-0.175939 -0.884503 0
			0.175939 -0.884503 0
			0.501031 -0.749846 0
			0.749846 -0.501031 0
			0.884503 -0.175938 0
			2.20148 0 0
			2.0339 0.842468 0
			1.55668 1.55668 0
			0.842468 2.0339 0
			-9.62295e-08 2.20148 0
			-0.842468 2.0339 0
			-1.55668 1.55668 0
			-2.0339 0.842468 0
			-2.20148 -1.92459e-07 0
			-2.0339 -0.842468 0
			-1.55668 -1.55668 0
			-0.842468 -2.0339 0
			2.88689e-07 -2.20148 0
			0.842468 -2.0339 0
			1.55668 -1.55668 0
			2.0339 -0.842468 0
			6.28184 1.24954 0
			5.32549 3.55838 0
			3.55838 5.32549 0
			1.24954 6.28184 0
			-1.24954 6.28184 0
			-3.55838 5.32549 0
			-5.32549 3.55838 0
			-6.28184 1.24954 0
			-6.28184 -1.24954 0
			-5.32549 -3.55838 0
			-3.55838 -5.32549 0
			-1.24954 -6.28184 0
			1.24954 -6.28184 0
			3.55838 -5.32549 0
			5.32549 -3.55838 0
			6.28184 -1.24953 0
			20.0001 0 0
			18.4777 7.6537 0
			14.1422 14.1422 0
			7.6537 18.4777 0
			-8.74231e-07 20.0001 0
			-7.6537 18.4777 0
			-14.1422 14.1422 0
			-18.4777 7.65369 0
			-20.0001 -1.74846e-06 0
			-18.4777 -7.6537 0
			-14.1422 -14.1422 0
			-7.65369 -18.4777 0
			2.62269e-06 -20.0001 0
			7.6537 -18.4777 0
			14.1422 -14.1422 0
			18.4777 -7.65369 0
		</DataArray>
		</Points>
		<Cells>
			<DataArray type="UInt32" Name="connectivity" Format="ascii">
				0 16 1
				0 31 16
				1 17 2
				1 16 17
				2 18 3
				2 17 18
				3 19 4
				3 18 19
				4 20 5
				4 19 20
				5 21 6
				5 20 21
				6 22 7
				6 21 22
				7 23 8
				7 22 23
				8 24 9
				8 23 24
				9 25 10
				9 24 25
				10 26 11
				10 25 26
				11 27 12
				11 26 27
				12 28 13
				12 27 28
				13 29 14
				13 28 29
				14 30 15
				14 29 30
				15 31 0
				15 30 31
				16 32 33
				16 31 32
				17 33 34
				17 16 33
				18 34 35
				18 17 34
				19 35 36
				19 18 35
				20 36 37
				20 19 36
				21 37 38
				21 20 37
				22 38 39
				22 21 38
				23 39 40
				23 22 39
				24 40 41
				24 23 40
				25 41 42
				25 24 41
				26 42 43
				26 25 42
				27 43 44
				27 26 43
				28 44 45
				28 27 44
				29 45 46
				29 28 45
				30 46 47
				30 29 46
				31 47 32
				31 30 47
				32 48 33
				32 63 48
				33 49 34
				33 48 49
				34 50 35
				34 49 50
				35 51 36
				35 50 51
				36 52 37
				36 51 52
				37 53 38
				37 52 53
				38 54 39
				38 53 54
				39 55 40
				39 54 55
				40 56 41
				40 55 56
				41 57 42
				41 56 57
				42 58 43
				42 57 58
				43 59 44
				43 58 59
				44 60 45
				44 59 60
				45 61 46
				45 60 61
				46 62 47
				46 61 62
				47 63 32
				47 62 63
				48 64 65
				48 63 64
				49 65 66
				49 48 65
				50 66 67
				50 49 66
				51 67 68
				51 50 67
				52 68 69
				52 51 68
				53 69 70
				53 52 69
				54 70 71
				54 53 70
				55 71 72
				55 54 71
				56 72 73
				56 55 72
				57 73 74
				57 56 73
				58 74 75
				58 57 74
				59 75 76
				59 58 75
				60 76 77
				60 59 76
				61 77 78
				61 60 77
				62 78 79
				62 61 78
				63 79 64
				63 62 79
			</DataArray>
			<DataArray type="UInt32" Name="offsets" Format="ascii">
				3
				6
				9
				12
				15
				18
				21
				24
				27
				30
				33
				36
				39
				42
				45
				48
				51
				54
				57
				60
				63
				66
				69
				72
				75
				78
				81
				84
				87
				90
				93
				96
				99
				102
				105
				108
				111
				114
				117
				120
				123
				126
				129
				132
				135
				138
				141
				144
				147
				150
				153
				156
				159
				162
				165
				168
				171
				174
				177
				180
				183
				186
				189
				192
				195
				198
				201
				204
				207
				210
				213
				216
				219
				222
				225
				228
				231
				234
				237
				240
				243
				246
				249
				252
				255
				258
				261
				264
				267
				270
				273
				276
				279
				282
				285
				288
				291
				294
				297
				300
				303
				306
				309
				312
				315
				318
				321
				324
				327
				330
				333
				336
				339
				342
				345
				348
				351
				354
				357
				360
				363
				366
				369
				372
				375
				378
				381
				384
			</DataArray>
			<DataArray type="Int32" Name="types" Format="ascii">
				5
				5
				5
				5
				5
				5
				5
				5
				5
				5
				5
				5
				5
				5
				5
				5
				5
				5
				5
				5
				5
				5
				5
				5
				5
				5
				5
				5
				5
				5
				5
				5
				5
				5
				5
				5
				5
				5
				5
				5
				5
				5
				5
				5
				5
				5
				5
				5
				5
				5
				5
				5
				5
				5
				5
				5
				5
				5
				5
				5
				5
				5
				5
				5
				5
				5
				5
				5
				5
				5
				5
				5
				5
				5
				5
				5
				5
				5
				5
				5
				5
				5
				5
				5
				5
				5
				5
				5
				5
				5
				5
				5
				5
				5
				5
				5
				5
				5
				5
				5
				5
				5
				5
				5
				5
				5
				5
				5
				5
				5
				5
				5
				5
				5
				5
				5
				5
				5
				5
				5
				5
				5
				5
				5
				5
				5
				5
				5
			</DataArray>
		</Cells>
	</Piece>
</UnstructuredGrid>
</VTKFile>