<VTKFile type="UnstructuredGrid" version="0.1" byte_order="LittleEndian">
<UnstructuredGrid>
	<Piece NumberOfPoints="4224" NumberOfCells="8192">
		<CellData Scalars="density" Vectors="velocity">
			<DataArray type="Float64" Name="density" Format="ascii">
				0.977955
				0.978806
				0.977791
				0.978751
				0.977422
				0.978549
				0.976804
				0.978148
				0.975884
				0.977501
				0.974594
				0.976534
				0.972862
				0.975159
				0.970627
				0.973309
				0.967834
				0.970932
				0.964417
				0.967999
				0.960337
				0.964405
				0.955461
				0.959877
				0.949419
				0.955056
				0.943229
				0.949632
				0.936725
				0.943293
				0.929074
				0.93608
				0.920817
				0.928325
				0.911885
				0.920191
				0.902346
				0.911607
				0.892341
				0.902217
				0.881971
				0.892416
				0.871364
				0.882414
				0.860818
				0.872345
				0.850166
				0.862203
				0.839858
				0.852286
				0.830014
				0.842878
				0.820805
				0.833904
				0.812535
				0.82573
				0.805373
				0.818562
				0.799725
				0.812392
				0.795389
				0.807958
				0.792867
				0.804896
				0.792157
				0.803569
				0.793385
				0.804036
				0.796487
				0.80626
				0.80144
				0.810286
				0.808046
				0.815857
				0.816136
				0.823009
				0.825926
				0.831895
				0.836733
				0.841509
				0.848541
				0.852166
				0.861171
				0.863854
				0.874521
				0.876227
				0.888628
				0.889003
				0.902853
				0.902214
				0.916824
				0.915613
				0.93086
				0.929086
				0.944786
				0.942558
				0.958665
				0.955817
				0.971993
				0.968982
				0.984768
				0.981998
				0.997066
				0.993959
				1.00895
				1.00496
				1.01977
				1.01532
				1.02986
				1.02538
				1.03921
				1.03464
				1.04765
				1.04306
				1.05514
				1.0506
				1.06165
				1.05723
				1.06712
				1.06295
				1.07154
				1.06768
				1.07486
				1.07138
				1.07709
				1.07403
				1.07822
				1.07563
				1.07822
				1.07617
				1.07709
				1.07563
				1.07486
				1.07403
				1.07154
				1.07138
				1.06712
				1.06768
				1.06165
				1.06295
				1.05514
				1.05723
				1.04765
				1.0506
				1.03921
				1.04306
				1.02986
				1.03464
				1.01977
				1.02538
				1.00895
				1.01532
				0.997066
				1.00496
				0.984768
				0.993959
				0.971994
				0.982
				0.958655
				0.968978
				0.944784
				0.955814
				0.930866
				0.942559
				0.916823
				0.929089
				0.902852
				0.915612
				0.888627
				0.902213
				0.874519
				0.889002
				0.861168
				0.876225
				0.848548
				0.863855
				0.83673
				0.852167
				0.825924
				0.841508
				0.816135
				0.831893
				0.808045
				0.823009
				0.80144
				0.815856
				0.796487
				0.810285
				0.793385
				0.80626
				0.792156
				0.804036
				0.792867
				0.803569
				0.795389
				0.804896
				0.799725
				0.807958
				0.805373
				0.812392
				0.812534
				0.818561
				0.820805
				0.82573
				0.830014
				0.833904
				0.839858
				0.842879
				0.850166
				0.852286
				0.860818
				0.862203
				0.871364
				0.872345
				0.881971
				0.882415
				0.892341
				0.892416
				0.902346
				0.902217
				0.911888
				0.911607
				0.920813
				0.92019
				0.929075
				0.928324
				0.936725
				0.936081
				0.94323
				0.943293
				0.949419
				0.949632
				0.955461
				0.955056
				0.960337
				0.959877
				0.964416
				0.964404
				0.967835
				0.967999
				0.970627
				0.970932
				0.972862
				0.973309
				0.974593
				0.975159
				0.975883
				0.976533
				0.976803
				0.9775
				0.977419
				0.978146
				0.977786
				0.978545
				0.97795
				0.978745
				0.980177
				0.980048
				0.980116
				0.980038
				0.979947
				0.979901
				0.979613
				0.979612
				0.979051
				0.979121
				0.978191
				0.978357
				0.976957
				0.97725
				0.975261
				0.975727
				0.973017
				0.973712
				0.97025
				0.971137
				0.967162
				0.967689
				0.96288
				0.964184
				0.958336
				0.959669
				0.953166
				0.954496
				0.947369
				0.948614
				0.941007
				0.942074
				0.934189
				0.934781
				0.926462
				0.926648
				0.91818
				0.918437
				0.909649
				0.909926
				0.900922
				0.900743
				0.892002
				0.891323
				0.882998
				0.881806
				0.874027
				0.872151
				0.865369
				0.862628
				0.857126
				0.853564
				0.8496
				0.845042
				0.842828
				0.83717
				0.837027
				0.830236
				0.832538
				0.824357
				0.829112
				0.819856
				0.827291
				0.816849
				0.827
				0.815552
				0.82827
				0.815896
				0.831284
				0.817956
				0.83573
				0.82173
				0.841309
				0.8271
				0.848743
				0.833986
				0.857292
				0.842277
				0.866745
				0.851632
				0.876991
				0.86198
				0.887888
				0.873146
				0.899245
				0.884925
				0.910931
				0.897033
				0.922857
				0.909478
				0.934852
				0.922051
				0.946769
				0.934582
				0.958395
				0.946923
				0.969888
				0.959185
				0.981406
				0.971618
				0.993149
				0.983634
				1.00425
				0.99424
				1.01423
				1.00506
				1.02343
				1.01538
				1.03196
				1.02502
				1.03979
				1.03377
				1.04695
				1.04177
				1.05331
				1.04894
				1.05879
				1.05523
				1.06339
				1.06055
				1.06709
				1.06494
				1.06989
				1.06836
				1.0718
				1.07079
				1.07279
				1.07227
				1.07279
				1.07283
				1.0718
				1.07227
				1.06989
				1.07079
				1.06709
				1.06836
				1.06339
				1.06494
				1.05879
				1.06055
				1.05331
				1.05523
				1.04695
				1.04894
				1.03979
				1.04177
				1.03196
				1.03377
				1.02343
				1.02502
				1.01423
				1.01538
				1.00425
				1.00506
				0.993149
				0.99424
				0.981405
				0.983634
				0.969887
				0.971617
				0.958395
				0.959182
				0.946769
				0.946923
				0.934852
				0.934584
				0.922857
				0.92205
				0.91093
				0.909477
				0.899245
				0.897032
				0.887888
				0.884924
				0.876991
				0.873146
				0.866745
				0.861981
				0.857291
				0.851631
				0.848742
				0.842276
				0.841308
				0.833986
				0.83573
				0.827099
				0.831284
				0.82173
				0.82827
				0.817956
				0.826999
				0.815896
				0.827291
				0.815552
				0.829112
				0.816848
				0.832538
				0.819855
				0.837027
				0.824357
				0.842828
				0.830236
				0.8496
				0.83717
				0.857126
				0.845042
				0.865369
				0.853565
				0.874027
				0.862628
				0.882998
				0.872151
				0.892002
				0.881806
				0.900922
				0.891324
				0.909649
				0.900743
				0.91818
				0.909926
				0.926462
				0.918437
				0.93419
				0.926648
				0.941006
				0.93478
				0.947368
				0.942074
				0.953166
				0.948613
				0.958336
				0.954496
				0.96288
				0.959669
				0.967162
				0.964184
				0.97025
				0.967689
				0.973017
				0.971136
				0.975261
				0.973712
				0.976957
				0.975727
				0.978191
				0.97725
				0.97905
				0.978356
				0.979611
				0.97912
				0.979945
				0.97961
				0.980112
				0.979898
				0.980167
				0.98003
				0.981209
				0.981404
				0.981177
				0.981401
				0.981074
				0.981363
				0.980839
				0.981246
				0.980405
				0.980986
				0.979701
				0.980509
				0.978647
				0.979735
				0.977212
				0.978609
				0.975328
				0.977037
				0.97322
				0.974952
				0.969974
				0.972054
				0.966417
				0.969243
				0.962243
				0.965681
				0.957436
				0.961556
				0.952008
				0.956853
				0.945998
				0.951551
				0.939786
				0.94542
				0.932789
				0.938943
				0.925069
				0.932228
				0.917049
				0.925115
				0.908839
				0.917551
				0.900461
				0.909711
				0.892036
				0.901793
				0.883655
				0.89391
				0.875512
				0.88637
				0.867687
				0.878978
				0.860439
				0.871947
				0.853878
				0.865668
				0.848271
				0.860179
				0.843863
				0.855503
				0.840784
				0.851985
				0.839013
				0.849957
				0.838507
				0.84933
				0.839746
				0.849876
				0.842482
				0.852018
				0.846572
				0.855533
				0.852296
				0.86063
				0.85937
				0.866774
				0.867413
				0.873584
				0.876385
				0.881494
				0.886116
				0.890357
				0.896445
				0.899855
				0.907194
				0.909843
				0.918255
				0.920187
				0.92952
				0.93077
				0.94087
				0.941488
				0.952057
				0.9523
				0.962999
				0.963351
				0.973876
				0.97438
				0.984548
				0.98487
				0.995058
				0.99454
				1.00482
				1.00421
				1.01425
				1.01364
				1.02315
				1.02236
				1.03135
				1.03027
				1.03887
				1.03758
				1.04566
				1.0442
				1.05161
				1.05013
				1.05675
				1.05533
				1.06107
				1.05977
				1.06454
				1.06348
				1.06713
				1.06637
				1.06885
				1.06839
				1.06972
				1.06962
				1.06972
				1.07005
				1.06885
				1.06962
				1.06713
				1.06839
				1.06454
				1.06637
				1.06107
				1.06348
				1.05675
				1.05977
				1.05161
				1.05533
				1.04566
				1.05013
				1.03887
				1.0442
				1.03135
				1.03758
				1.02314
				1.03027
				1.01425
				1.02236
				1.00482
				1.01364
				0.995058
				1.00421
				0.984547
				0.99454
				0.973876
				0.984869
				0.962998
				0.97438
				0.952057
				0.96335
				0.94087
				0.952299
				0.929519
				0.941487
				0.918255
				0.93077
				0.907194
				0.920186
				0.896444
				0.909843
				0.886116
				0.899855
				0.876385
				0.890357
				0.867413
				0.881494
				0.85937
				0.873584
				0.852296
				0.866774
				0.846572
				0.860629
				0.842481
				0.855533
				0.839745
				0.852018
				0.838507
				0.849876
				0.839013
				0.84933
				0.840784
				0.849957
				0.843863
				0.851985
				0.848271
				0.855502
				0.853878
				0.860179
				0.860439
				0.865668
				0.867688
				0.871947
				0.875512
				0.878978
				0.883655
				0.88637
				0.892036
				0.89391
				0.900461
				0.901793
				0.908839
				0.909711
				0.917049
				0.917551
				0.925069
				0.925115
				0.932789
				0.932228
				0.939786
				0.938943
				0.945998
				0.94542
				0.952008
				0.951551
				0.957436
				0.956853
				0.962243
				0.961557
				0.966417
				0.965681
				0.969974
				0.969243
				0.97322
				0.972054
				0.975327
				0.974952
				0.977212
				0.977037
				0.978647
				0.978609
				0.9797
				0.979735
				0.980405
				0.980509
				0.980838
				0.980986
				0.981073
				0.981246
				0.981176
				0.981362
				0.981212
				0.981403
				0.982707
				0.98245
				0.982741
				0.982459
				0.982773
				0.982466
				0.982746
				0.982422
				0.982585
				0.982259
				0.982214
				0.9819
				0.981542
				0.981271
				0.980487
				0.980308
				0.979032
				0.978995
				0.977422
				0.977005
				0.974954
				0.975074
				0.97222
				0.972338
				0.968974
				0.969033
				0.965205
				0.96518
				0.960869
				0.960807
				0.956012
				0.955919
				0.95088
				0.950471
				0.945116
				0.944267
				0.93879
				0.93801
				0.932195
				0.931485
				0.925494
				0.924523
				0.918731
				0.917359
				0.911957
				0.910014
				0.905175
				0.902782
				0.898606
				0.895421
				0.892373
				0.888482
				0.886672
				0.881942
				0.881618
				0.876035
				0.877425
				0.870885
				0.874241
				0.866602
				0.871934
				0.863153
				0.87064
				0.860946
				0.870676
				0.86056
				0.872098
				0.861192
				0.874286
				0.86336
				0.877905
				0.866512
				0.882987
				0.870909
				0.88906
				0.87657
				0.895926
				0.883297
				0.903481
				0.890896
				0.911665
				0.899242
				0.920345
				0.908183
				0.929407
				0.917576
				0.938746
				0.927304
				0.948258
				0.937248
				0.957896
				0.947322
				0.967469
				0.957583
				0.976851
				0.967752
				0.985941
				0.977969
				0.995036
				0.987756
				1.00428
				0.996551
				1.01291
				1.00484
				1.02097
				1.01314
				1.02827
				1.02118
				1.03484
				1.02877
				1.04084
				1.03581
				1.04635
				1.04219
				1.05122
				1.04773
				1.05546
				1.05258
				1.0591
				1.05672
				1.06205
				1.06016
				1.06427
				1.06285
				1.06573
				1.06477
				1.06646
				1.06591
				1.06646
				1.06629
				1.06573
				1.06591
				1.06427
				1.06477
				1.06205
				1.06285
				1.0591
				1.06016
				1.05546
				1.05672
				1.05122
				1.05258
				1.04635
				1.04773
				1.04084
				1.04219
				1.03484
				1.03581
				1.02827
				1.02877
				1.02097
				1.02118
				1.01291
				1.01314
				1.00428
				1.00483
				0.995035
				0.99655
				0.985941
				0.987755
				0.97685
				0.977968
				0.967468
				0.967752
				0.957896
				0.957583
				0.948258
				0.947322
				0.938746
				0.937248
				0.929406
				0.927304
				0.920345
				0.917576
				0.911664
				0.908182
				0.90348
				0.899242
				0.895926
				0.890896
				0.88906
				0.883297
				0.882986
				0.876569
				0.877904
				0.870908
				0.874286
				0.866511
				0.872098
				0.86336
				0.870676
				0.861192
				0.870639
				0.860559
				0.871934
				0.860946
				0.874241
				0.863153
				0.877425
				0.866602
				0.881618
				0.870885
				0.886672
				0.876035
				0.892373
				0.881942
				0.898606
				0.888482
				0.905175
				0.895421
				0.911957
				0.902782
				0.918731
				0.910014
				0.925494
				0.917359
				0.932195
				0.924523
				0.938791
				0.931485
				0.945117
				0.93801
				0.95088
				0.944267
				0.956013
				0.950471
				0.960869
				0.955919
				0.965205
				0.960807
				0.968974
				0.96518
				0.97222
				0.969033
				0.974954
				0.972338
				0.977422
				0.975073
				0.979032
				0.977005
				0.980487
				0.978995
				0.981542
				0.980308
				0.982213
				0.981271
				0.982585
				0.9819
				0.982745
				0.982258
				0.982772
				0.982421
				0.982741
				0.982466
				0.982707
				0.98246
				0.983678
				0.983992
				0.983739
				0.984038
				0.983824
				0.984158
				0.983871
				0.984299
				0.983802
				0.984387
				0.98354
				0.984338
				0.983027
				0.984079
				0.982216
				0.983553
				0.981215
				0.982699
				0.979428
				0.981339
				0.977361
				0.979888
				0.974835
				0.977856
				0.971837
				0.975334
				0.968361
				0.972325
				0.964392
				0.96883
				0.959929
				0.964874
				0.955331
				0.960262
				0.950086
				0.955397
				0.944325
				0.950342
				0.938353
				0.945036
				0.932239
				0.939325
				0.92602
				0.933612
				0.919521
				0.927703
				0.913274
				0.921805
				0.907228
				0.916085
				0.901472
				0.910621
				0.896189
				0.905531
				0.891487
				0.900964
				0.88754
				0.896979
				0.884601
				0.893692
				0.882677
				0.891245
				0.881739
				0.889884
				0.88142
				0.889891
				0.882554
				0.890653
				0.884773
				0.892727
				0.888297
				0.895863
				0.893062
				0.899786
				0.898722
				0.904332
				0.90508
				0.909776
				0.912143
				0.916118
				0.919786
				0.923089
				0.927883
				0.930551
				0.936327
				0.938402
				0.945027
				0.946546
				0.953773
				0.954899
				0.962565
				0.963459
				0.971341
				0.972156
				0.980063
				0.980811
				0.988808
				0.989134
				0.997362
				0.996984
				1.00512
				1.00438
				1.01246
				1.01193
				1.01938
				1.01926
				1.02628
				1.0259
				1.0327
				1.03188
				1.03847
				1.03738
				1.04359
				1.04245
				1.04811
				1.04697
				1.05201
				1.05093
				1.05529
				1.05434
				1.05794
				1.05718
				1.05994
				1.0594
				1.06127
				1.061
				1.06193
				1.06195
				1.06193
				1.06227
				1.06127
				1.06195
				1.05994
				1.061
				1.05794
				1.0594
				1.05529
				1.05718
				1.05201
				1.05434
				1.04811
				1.05093
				1.04359
				1.04697
				1.03847
				1.04245
				1.0327
				1.03738
				1.02628
				1.03188
				1.01938
				1.0259
				1.01246
				1.01926
				1.00512
				1.01193
				0.997361
				1.00438
				0.988807
				0.996983
				0.980063
				0.989134
				0.97134
				0.980811
				0.962564
				0.972155
				0.953772
				0.963458
				0.945026
				0.954899
				0.936327
				0.946546
				0.927883
				0.938402
				0.919786
				0.930551
				0.912143
				0.923089
				0.90508
				0.916117
				0.898721
				0.909775
				0.893062
				0.904331
				0.888296
				0.899786
				0.884773
				0.895863
				0.882554
				0.892727
				0.88142
				0.890652
				0.881739
				0.889891
				0.882677
				0.889884
				0.884601
				0.891245
				0.88754
				0.893692
				0.891487
				0.896979
				0.896188
				0.900964
				0.901472
				0.905531
				0.907228
				0.910621
				0.913274
				0.916085
				0.919521
				0.921805
				0.92602
				0.927703
				0.932239
				0.933612
				0.938353
				0.939325
				0.944325
				0.945036
				0.950086
				0.950342
				0.955331
				0.955397
				0.959929
				0.960262
				0.964392
				0.964874
				0.968361
				0.96883
				0.971837
				0.972325
				0.974836
				0.975334
				0.977361
				0.977856
				0.979428
				0.979888
				0.981216
				0.981339
				0.982216
				0.982699
				0.983027
				0.983553
				0.98354
				0.984078
				0.983802
				0.984338
				0.983871
				0.984387
				0.983824
				0.984299
				0.983739
				0.984158
				0.983678
				0.984038
				0.985203
				0.984784
				0.985352
				0.984844
				0.985611
				0.985005
				0.985908
				0.985211
				0.986158
				0.985387
				0.986272
				0.985453
				0.986174
				0.985326
				0.985792
				0.984934
				0.985152
				0.984112
				0.98404
				0.983159
				0.98258
				0.981709
				0.98069
				0.979847
				0.978361
				0.977553
				0.975588
				0.974815
				0.972382
				0.971632
				0.968823
				0.968038
				0.965002
				0.963956
				0.960561
				0.959355
				0.955833
				0.954902
				0.951229
				0.950135
				0.946292
				0.94511
				0.941255
				0.9396
				0.936251
				0.934242
				0.931334
				0.928918
				0.926616
				0.923733
				0.922195
				0.918783
				0.918172
				0.91419
				0.9147
				0.910079
				0.911923
				0.906513
				0.909862
				0.903444
				0.908365
				0.901077
				0.907624
				0.899922
				0.907891
				0.899998
				0.908739
				0.901114
				0.910718
				0.902875
				0.913894
				0.905416
				0.917925
				0.908955
				0.92265
				0.913363
				0.927979
				0.91853
				0.933833
				0.924412
				0.940153
				0.930851
				0.946818
				0.937734
				0.953794
				0.944928
				0.960988
				0.952416
				0.968323
				0.960154
				0.975617
				0.968021
				0.982843
				0.97583
				0.989952
				0.98367
				0.996848
				0.991125
				1.00402
				0.997939
				1.01082
				1.00489
				1.01732
				1.01129
				1.02334
				1.01747
				1.02871
				1.02351
				1.03364
				1.02923
				1.03812
				1.03438
				1.04224
				1.03915
				1.04591
				1.04329
				1.04913
				1.04691
				1.05182
				1.04999
				1.05398
				1.05252
				1.05561
				1.05451
				1.0567
				1.05593
				1.05725
				1.05679
				1.05725
				1.05708
				1.0567
				1.05679
				1.05561
				1.05593
				1.05398
				1.05451
				1.05182
				1.05252
				1.04913
				1.04999
				1.04591
				1.04691
				1.04224
				1.04329
				1.03812
				1.03915
				1.03364
				1.03438
				1.02871
				1.02923
				1.02334
				1.02351
				1.01732
				1.01747
				1.01082
				1.01129
				1.00402
				1.00489
				0.996848
				0.997939
				0.989952
				0.991125
				0.982843
				0.98367
				0.975617
				0.97583
				0.968323
				0.968021
				0.960988
				0.960154
				0.953794
				0.952416
				0.946817
				0.944928
				0.940152
				0.937734
				0.933833
				0.930851
				0.927978
				0.924412
				0.92265
				0.918529
				0.917925
				0.913363
				0.913894
				0.908955
				0.910717
				0.905416
				0.908739
				0.902875
				0.907891
				0.901114
				0.907623
				0.899998
				0.908365
				0.899922
				0.909862
				0.901077
				0.911923
				0.903444
				0.9147
				0.906513
				0.918173
				0.910079
				0.922195
				0.91419
				0.926616
				0.918783
				0.931334
				0.923733
				0.936251
				0.928919
				0.941255
				0.934242
				0.946292
				0.9396
				0.951229
				0.94511
				0.955833
				0.950135
				0.960561
				0.954902
				0.965002
				0.959355
				0.968823
				0.963956
				0.972382
				0.968038
				0.975588
				0.971632
				0.978361
				0.974815
				0.98069
				0.977553
				0.98258
				0.979847
				0.98404
				0.981709
				0.985152
				0.983159
				0.985792
				0.984112
				0.986174
				0.984934
				0.986272
				0.985326
				0.986158
				0.985453
				0.985908
				0.985387
				0.985611
				0.985211
				0.985352
				0.985005
				0.985203
				0.984844
				0.985724
				0.986157
				0.985898
				0.986266
				0.986202
				0.986569
				0.986556
				0.987001
				0.986866
				0.987467
				0.987037
				0.987865
				0.987
				0.988102
				0.986709
				0.988107
				0.986107
				0.98783
				0.985175
				0.987225
				0.983884
				0.986263
				0.982214
				0.984929
				0.980149
				0.983214
				0.977674
				0.981106
				0.974769
				0.978589
				0.971541
				0.975597
				0.968233
				0.97209
				0.964381
				0.96865
				0.960356
				0.964923
				0.955873
				0.961106
				0.951338
				0.957001
				0.946836
				0.952787
				0.942353
				0.94855
				0.937958
				0.944383
				0.933737
				0.940338
				0.929782
				0.936531
				0.92618
				0.933027
				0.923089
				0.9299
				0.920597
				0.927204
				0.918799
				0.925051
				0.917722
				0.92353
				0.917281
				0.922765
				0.917092
				0.923083
				0.918052
				0.924112
				0.919996
				0.925925
				0.922933
				0.928321
				0.926604
				0.931156
				0.930879
				0.934665
				0.935718
				0.93887
				0.941054
				0.943676
				0.946794
				0.948931
				0.952859
				0.954572
				0.959155
				0.96048
				0.965559
				0.966595
				0.972075
				0.972907
				0.978593
				0.979345
				0.985113
				0.985791
				0.991755
				0.992108
				0.998267
				0.998144
				1.0044
				1.0038
				1.01014
				1.00946
				1.01546
				1.01515
				1.02062
				1.0205
				1.02578
				1.02524
				1.03044
				1.0296
				1.03457
				1.03363
				1.03829
				1.03734
				1.04158
				1.04067
				1.04443
				1.04361
				1.04682
				1.04612
				1.04874
				1.0482
				1.05018
				1.04983
				1.05114
				1.05099
				1.05162
				1.05168
				1.05162
				1.05191
				1.05114
				1.05168
				1.05018
				1.05099
				1.04874
				1.04983
				1.04682
				1.0482
				1.04443
				1.04612
				1.04158
				1.04361
				1.03829
				1.04067
				1.03457
				1.03734
				1.03044
				1.03363
				1.02578
				1.0296
				1.02062
				1.02524
				1.01546
				1.0205
				1.01014
				1.01515
				1.00439
				1.00946
				0.998267
				1.0038
				0.991755
				0.998144
				0.985113
				0.992108
				0.978592
				0.985791
				0.972074
				0.979345
				0.965559
				0.972907
				0.959155
				0.966595
				0.952859
				0.96048
				0.946794
				0.954571
				0.941053
				0.948931
				0.935718
				0.943676
				0.930879
				0.938869
				0.926603
				0.934664
				0.922933
				0.931156
				0.919996
				0.928321
				0.918052
				0.925925
				0.917092
				0.924112
				0.917281
				0.923083
				0.917722
				0.922765
				0.918799
				0.92353
				0.920597
				0.92505
				0.923089
				0.927204
				0.92618
				0.9299
				0.929782
				0.933027
				0.933737
				0.936531
				0.937958
				0.940338
				0.942354
				0.944383
				0.946836
				0.94855
				0.951338
				0.952787
				0.955872
				0.957001
				0.960356
				0.961106
				0.964381
				0.964923
				0.968233
				0.96865
				0.971541
				0.97209
				0.974769
				0.975597
				0.977674
				0.978589
				0.980149
				0.981106
				0.982214
				0.983214
				0.983884
				0.984929
				0.985175
				0.986263
				0.986108
				0.987225
				0.986709
				0.98783
				0.987
				0.988106
				0.987037
				0.988102
				0.986866
				0.987864
				0.986556
				0.987467
				0.986201
				0.987001
				0.985898
				0.986569
				0.985724
				0.986266
				0.986941
				0.986337
				0.987221
				0.986457
				0.987727
				0.986792
				0.988363
				0.987269
				0.989011
				0.987787
				0.989558
				0.988239
				0.989913
				0.988535
				0.990005
				0.988604
				0.989787
				0.9884
				0.989229
				0.987886
				0.988319
				0.987043
				0.98706
				0.985868
				0.98546
				0.984359
				0.983533
				0.982509
				0.981285
				0.980314
				0.978812
				0.977777
				0.975863
				0.974764
				0.972745
				0.971735
				0.969457
				0.968407
				0.965943
				0.96473
				0.962405
				0.961129
				0.958887
				0.957436
				0.955402
				0.953724
				0.952022
				0.950071
				0.948809
				0.946529
				0.945826
				0.943213
				0.943203
				0.940133
				0.941
				0.937358
				0.939262
				0.934944
				0.937962
				0.932996
				0.937099
				0.931723
				0.936738
				0.931222
				0.936929
				0.931719
				0.937753
				0.932783
				0.939528
				0.93417
				0.941986
				0.936195
				0.945005
				0.938857
				0.948528
				0.942131
				0.95248
				0.945966
				0.956798
				0.950281
				0.961436
				0.955008
				0.966337
				0.960042
				0.971438
				0.965341
				0.976706
				0.970865
				0.982
				0.976543
				0.987317
				0.982229
				0.992554
				0.987937
				0.997653
				0.993421
				1.00301
				0.998477
				1.00808
				1.00366
				1.01301
				1.00868
				1.01768
				1.01329
				1.02191
				1.01779
				1.02572
				1.02223
				1.0293
				1.02635
				1.03254
				1.02986
				1.03552
				1.03331
				1.03818
				1.03626
				1.04047
				1.03883
				1.04238
				1.04103
				1.04392
				1.04284
				1.04509
				1.04426
				1.04587
				1.04527
				1.04626
				1.04588
				1.04626
				1.04608
				1.04587
				1.04588
				1.04509
				1.04527
				1.04392
				1.04426
				1.04238
				1.04284
				1.04047
				1.04103
				1.03818
				1.03883
				1.03552
				1.03626
				1.03254
				1.03331
				1.0293
				1.02986
				1.02572
				1.02635
				1.02191
				1.02223
				1.01768
				1.01779
				1.01301
				1.01329
				1.00808
				1.00868
				1.00301
				1.00366
				0.997653
				0.998477
				0.992553
				0.993421
				0.987317
				0.987937
				0.981999
				0.982229
				0.976706
				0.976543
				0.971438
				0.970865
				0.966336
				0.965341
				0.961436
				0.960042
				0.956798
				0.955008
				0.95248
				0.950281
				0.948528
				0.945966
				0.945005
				0.942131
				0.941986
				0.938857
				0.939528
				0.936195
				0.937753
				0.93417
				0.936929
				0.932783
				0.936738
				0.931718
				0.937099
				0.931222
				0.937962
				0.931723
				0.939262
				0.932996
				0.941
				0.934944
				0.943203
				0.937358
				0.945826
				0.940133
				0.948809
				0.943213
				0.952022
				0.946529
				0.955402
				0.950071
				0.958887
				0.953724
				0.962405
				0.957436
				0.965943
				0.961129
				0.969457
				0.96473
				0.972745
				0.968407
				0.975863
				0.971735
				0.978812
				0.974764
				0.981285
				0.977777
				0.983533
				0.980314
				0.98546
				0.982509
				0.98706
				0.984359
				0.988319
				0.985868
				0.989229
				0.987043
				0.989787
				0.987885
				0.990005
				0.9884
				0.989913
				0.988604
				0.989558
				0.988536
				0.989011
				0.988239
				0.988363
				0.987787
				0.987727
				0.987269
				0.987221
				0.986791
				0.986941
				0.986457
				0.986826
				0.987418
				0.987129
				0.987598
				0.987677
				0.988106
				0.988367
				0.988854
				0.989079
				0.989714
				0.989691
				0.990547
				0.99011
				0.991231
				0.990272
				0.991675
				0.990133
				0.991815
				0.989675
				0.99162
				0.988891
				0.991079
				0.987785
				0.990194
				0.986376
				0.988979
				0.984687
				0.987469
				0.982739
				0.98564
				0.980673
				0.9834
				0.978238
				0.981082
				0.975565
				0.978675
				0.972471
				0.976069
				0.969411
				0.973271
				0.966297
				0.970384
				0.963187
				0.967455
				0.960137
				0.964542
				0.957194
				0.961696
				0.954408
				0.958987
				0.95184
				0.956457
				0.949558
				0.954158
				0.947642
				0.952119
				0.946158
				0.95042
				0.945149
				0.949113
				0.944624
				0.948238
				0.944299
				0.947898
				0.944324
				0.948613
				0.945217
				0.949461
				0.946848
				0.950851
				0.94908
				0.952535
				0.951772
				0.954651
				0.954876
				0.957264
				0.958368
				0.960349
				0.962192
				0.963828
				0.966325
				0.967623
				0.970664
				0.971682
				0.975111
				0.975937
				0.97966
				0.98035
				0.984275
				0.98489
				0.988922
				0.98948
				0.993707
				0.994057
				0.998448
				0.998481
				1.00303
				1.00264
				1.00732
				1.00674
				1.01133
				1.01087
				1.01505
				1.01492
				1.01889
				1.01859
				1.02248
				1.02189
				1.02568
				1.02499
				1.02865
				1.02783
				1.03119
				1.03047
				1.03349
				1.03285
				1.03548
				1.03492
				1.03714
				1.03669
				1.03847
				1.03815
				1.03947
				1.03928
				1.04014
				1.04009
				1.04048