<VTKFile type="UnstructuredGrid" version="0.1" byte_order="LittleEndian">
<UnstructuredGrid>
	<Piece NumberOfPoints="80" NumberOfCells="128">
		<CellData Scalars="density" Vectors="velocity">
			<DataArray type="Float64" Name="density" Format="ascii">
				1.00896
				1.00366
				0.984838
				0.998902
				0.90642
				0.967118
				0.826531
				0.90635
				0.835216
				0.884762
				0.927822
				0.932134
				1.01837
				0.998377
				1.06124
				1.04772
				1.06124
				1.0648
				1.01837
				1.04772
				0.927823
				0.998377
				0.835217
				0.932135
				0.826532
				0.884763
				0.906421
				0.90635
				0.984838
				0.967119
				1.00896
				0.998902
				0.999729
				0.99872
				1.00192
				1.01342
				0.99218
				0.996566
				0.983823
				0.975327
				0.98526
				0.964226
				0.996014
				0.975761
				1.00819
				0.998581
				1.0151
				1.0169
				1.0151
				1.02337
				1.00819
				1.0169
				0.996014
				0.998582
				0.98526
				0.975761
				0.983823
				0.964226
				0.99218
				0.975328
				1.00192
				0.996566
				0.999729
				1.01342
				0.998417
				0.998374
				1.00121
				0.999587
				0.997854
				0.999746
				0.995855
				0.99875
				0.996702
				0.998405
				0.999727
				0.999431
				1.00281
				1.00104
				1.00447
				1.00224
				1.00447
				1.00267
				1.00281
				1.00224
				0.999727
				1.00104
				0.996702
				0.999431
				0.995855
				0.998405
				0.997855
				0.99875
				1.00121
				0.999746
				0.998417
				0.999587
				0.998367
				0.995284
				0.999672
				1.00055
				0.999791
				0.999467
				0.999868
				0.999482
				1.00008
				0.999671
				1.00035
				1.0001
				1.00057
				1.00056
				1.00069
				1.00087
				1.00069
				1.00099
				1.00057
				1.00087
				1.00035
				1.00056
				1.00008
				1.0001
				0.999868
				0.999671
				0.999791
				0.999482
				0.999672
				0.999467
				0.998367
				1.00055
			</DataArray>
			<DataArray type="Float64" Name="mach-number" Format="ascii">
				0.121145
				0.110556
				0.327748
				0.25502
				0.538693
				0.421907
				0.709846
				0.566993
				0.705419
				0.618849
				0.537825
				0.544164
				0.330065
				0.406202
				0.131918
				0.259587
				0.131917
				0.153559
				0.330065
				0.259587
				0.537824
				0.406201
				0.705417
				0.544164
				0.709845
				0.618848
				0.538692
				0.566992
				0.327747
				0.421907
				0.121144
				0.255019
				0.309991
				0.198121
				0.366865
				0.334739
				0.396591
				0.383254
				0.422517
				0.434374
				0.422359
				0.460434
				0.394982
				0.435881
				0.361657
				0.379082
				0.337587
				0.324968
				0.337587
				0.271808
				0.361656
				0.324968
				0.394982
				0.379081
				0.422358
				0.43588
				0.422516
				0.460433
				0.39659
				0.434374
				0.366865
				0.383253
				0.30999
				0.334739
				0.353845
				0.350935
				0.376664
				0.374285
				0.384416
				0.380542
				0.390633
				0.384558
				0.388966
				0.385212
				0.381098
				0.382062
				0.373023
				0.377627
				0.369484
				0.374643
				0.369484
				0.373217
				0.373023
				0.374642
				0.381098
				0.377627
				0.388966
				0.382061
				0.390632
				0.385212
				0.384416
				0.384557
				0.376664
				0.380542
				0.353844
				0.374285
				0.37604
				0.356147
				0.381373
				0.38353
				0.381421
				0.381867
				0.381112
				0.382107
				0.380526
				0.381551
				0.379799
				0.380418
				0.3792
				0.379197
				0.378856
				0.378412
				0.378856
				0.378023
				0.3792
				0.378412
				0.379799
				0.379197
				0.380526
				0.380418
				0.381112
				0.381551
				0.381421
				0.382107
				0.381373
				0.381867
				0.37604
				0.38353
			</DataArray>
			<DataArray type="Float64" Name="pressure" Format="ascii">
				5.15547
				5.10747
				4.89923
				5.02404
				4.355
				4.75199
				3.8113
				4.33686
				3.84862
				4.19671
				4.4419
				4.50162
				5.05566
				4.94418
				5.36618
				5.28239
				5.36618
				5.41154
				5.05567
				5.28239
				4.44191
				4.94418
				3.84863
				4.50162
				3.8113
				4.19672
				4.355
				4.33686
				4.89923
				4.752
				5.15547
				5.02404
				5.00306
				5.08191
				4.96888
				5.05048
				4.89609
				4.93149
				4.83552
				4.78484
				4.84484
				4.70788
				4.91972
				4.78307
				5.0036
				4.93749
				5.05216
				5.06359
				5.05216
				5.12236
				5.0036
				5.06359
				4.91972
				4.93749
				4.84484
				4.78308
				4.83552
				4.70788
				4.89609
				4.78485
				4.96888
				4.9315
				5.00306
				5.05048
				4.96278
				4.9603
				4.95423
				4.94925
				4.93193
				4.94475
				4.91793
				4.93766
				4.92379
				4.93541
				4.94473
				4.94252
				4.96602
				4.95369
				4.97747
				4.96204
				4.97747
				4.96508
				4.96602
				4.96204
				4.94473
				4.95369
				4.92379
				4.94252
				4.91793
				4.93541
				4.93193
				4.93766
				4.95423
				4.94475
				4.96278
				4.94925
				4.94272
				4.94523
				4.94437
				4.94621
				4.94512
				4.94282
				4.94568
				4.94296
				4.94711
				4.94429
				4.94899
				4.94724
				4.95054
				4.95049
				4.95134
				4.9526
				4.95134
				4.95342
				4.95054
				4.9526
				4.94899
				4.95049
				4.94711
				4.94724
				4.94568
				4.94429
				4.94512
				4.94296
				4.94437
				4.94282
				4.94272
				4.94621
			</DataArray>
			<DataArray type="Float64" Name="velocity" NumberOfComponents="3" Format="ascii">
				0.299652 -0.123266 0.0 
				0.295093 -1.52102e-06 0.0 
				0.719664 -0.479796 0.0 
				0.632742 -0.239947 0.0 
				1.28709 -0.54346 0.0 
				1.02638 -0.413582 0.0 
				1.79232 -0.201247 0.0 
				1.42621 -0.345707 0.0 
				1.74986 0.384919 0.0 
				1.59473 0.00677584 0.0 
				1.20469 0.698175 0.0 
				1.36481 0.373317 0.0 
				0.635285 0.594638 0.0 
				0.959264 0.473048 0.0 
				0.276559 0.216121 0.0 
				0.622953 0.295918 0.0 
				0.276559 -0.216119 0.0 
				0.409604 7.65618e-07 0.0 
				0.635284 -0.594636 0.0 
				0.622953 -0.295917 0.0 
				1.20468 -0.698173 0.0 
				0.959263 -0.473047 0.0 
				1.74986 -0.384918 0.0 
				1.36481 -0.373316 0.0 
				1.79231 0.201246 0.0 
				1.59472 -0.00677608 0.0 
				1.28709 0.543459 0.0 
				1.42621 0.345705 0.0 
				0.719663 0.479794 0.0 
				1.02638 0.41358 0.0 
				0.299651 0.123262 0.0 
				0.632742 0.239945 0.0 
				0.818434 -0.0584664 0.0 
				0.528794 -3.41435e-07 0.0 
				0.962754 -0.0870138 0.0 
				0.877071 -0.111905 0.0 
				1.03865 -0.0883777 0.0 
				0.996709 -0.155441 0.0 
				1.10802 -0.0263817 0.0 
				1.13215 -0.118911 0.0 
				1.10618 0.0665262 0.0 
				1.20364 0.0194706 0.0 
				1.03205 0.117074 0.0 
				1.13011 0.163375 0.0 
				0.947663 0.103538 0.0 
				0.976776 0.20165 0.0 
				0.889931 0.045938 0.0 
				0.847176 0.135946 0.0 
				0.889931 -0.0459372 0.0 
				0.719524 4.83207e-07 0.0 
				0.947662 -0.103537 0.0 
				0.847175 -0.135945 0.0 
				1.03205 -0.117073 0.0 
				0.976776 -0.201649 0.0 
				1.10618 -0.066526 0.0 
				1.13011 -0.163375 0.0 
				1.10802 0.0263814 0.0 
				1.20364 -0.0194706 0.0 
				1.03865 0.088377 0.0 
				1.13215 0.118911 0.0 
				0.962753 0.0870129 0.0 
				0.996708 0.15544 0.0 
				0.818433 0.0584657 0.0 
				0.87707 0.111904 0.0 
				0.933422 -0.00444723 0.0 
				0.925546 -2.7214e-07 0.0 
				0.991249 -0.0166922 0.0 
				0.985426 -0.00299729 0.0 
				1.01107 -0.0169104 0.0 
				1.00135 -0.00562138 0.0 
				1.02713 -0.000360192 0.0 
				1.01171 -0.000828006 0.0 
				1.02271 0.0210438 0.0 
				1.01334 0.00847539 0.0 
				1.00237 0.0305608 0.0 
				1.00518 0.0152437 0.0 
				0.981888 0.024357 0.0 
				0.993842 0.0148038 0.0 
				0.973145 0.00871754 0.0 
				0.986301 0.00810614 0.0 
				0.973145 -0.00871714 0.0 
				0.982673 1.35595e-07 0.0 
				0.981888 -0.0243566 0.0 
				0.986301 -0.00810588 0.0 
				1.00237 -0.0305605 0.0 
				0.993842 -0.0148036 0.0 
				1.02271 -0.0210437 0.0 
				1.00518 -0.0152436 0.0 
				1.02713 0.000360056 0.0 
				1.01334 -0.00847543 0.0 
				1.01107 0.01691 0.0 
				1.01171 0.000827812 0.0 
				0.991249 0.0166917 0.0 
				1.00135 0.00562107 0.0 
				0.933422 0.00444675 0.0 
				0.985426 0.00299693 0.0 
				0.989992 -0.00420198 0.0 
				0.939318 -8.36184e-08 0.0 
				1.00355 -0.00197495 0.0 
				1.00897 -0.00188858 0.0 
				1.0037 -0.000530395 0.0 
				1.0048 -0.00148788 0.0 
				1.0029 0.000964567 0.0 
				1.00544 0.00102938 0.0 
				1.0014 0.00216809 0.0 
				1.00401 0.00323269 0.0 
				0.999539 0.00250014 0.0 
				1.00111 0.0045377 0.0 
				0.998007 0.00186929 0.0 
				0.997991 0.00410208 0.0 
				0.997127 0.000727296 0.0 
				0.995991 0.0023022 0.0 
				0.997127 -0.000727232 0.0 
				0.994993 5.59549e-08 0.0 
				0.998007 -0.00186924 0.0 
				0.995991 -0.0023021 0.0 
				0.999539 -0.00250012 0.0 
				0.99799 -0.004102 0.0 
				1.0014 -0.00216812 0.0 
				1.00111 -0.00453767 0.0 
				1.0029 -0.000964649 0.0 
				1.00401 -0.00323273 0.0 
				1.0037 0.000530275 0.0 
				1.00544 -0.0010295 0.0 
				1.00355 0.00197482 0.0 
				1.0048 0.00148772 0.0 
				0.989992 0.00420184 0.0 
				1.00897 0.0018884 0.0 
			</DataArray>
		</CellData>
		<Points>
		<DataArray type="Float64" NumberOfComponents="3" Format="ascii">
			0.5 0 0.0 
			0.46194 0.191342 0.0 
			0.353553 0.353553 0.0 
			0.191342 0.46194 0.0 
			-2.18557e-08 0.5 0.0 
			-0.191342 0.46194 0.0 
			-0.353553 0.353553 0.0 
			-0.46194 0.191342 0.0 
			-0.5 -4.37114e-08 0.0 
			-0.46194 -0.191342 0.0 
			-0.353553 -0.353553 0.0 
			-0.191342 -0.46194 0.0 
			6.55671e-08 -0.5 0.0 
			0.191342 -0.46194 0.0 
			0.353553 -0.353553 0.0 
			0.46194 -0.191342 0.0 
			0.884503 0.175939 0.0 
			0.749846 0.501031 0.0 
			0.501031 0.749846 0.0 
			0.175939 0.884503 0.0 
			-0.175939 0.884503 0.0 
			-0.501031 0.749846 0.0 
			-0.749846 0.501031 0.0 
			-0.884503 0.175939 0.0 
			-0.884503 -0.175939 0.0 
			-0.749846 -0.501031 0.0 
			-0.501031 -0.749846 0.0 
			-0.175939 -0.884503 0.0 
			0.175939 -0.884503 0.0 
			0.501031 -0.749846 0.0 
			0.749846 -0.501031 0.0 
			0.884503 -0.175938 0.0 
			2.20148 0 0.0 
			2.0339 0.842468 0.0 
			1.55668 1.55668 0.0 
			0.842468 2.0339 0.0 
			-9.62295e-08 2.20148 0.0 
			-0.842468 2.0339 0.0 
			-1.55668 1.55668 0.0 
			-2.0339 0.842468 0.0 
			-2.20148 -1.92459e-07 0.0 
			-2.0339 -0.842468 0.0 
			-1.55668 -1.55668 0.0 
			-0.842468 -2.0339 0.0 
			2.88689e-07 -2.20148 0.0 
			0.842468 -2.0339 0.0 
			1.55668 -1.55668 0.0 
			2.0339 -0.842468 0.0 
			6.28184 1.24954 0.0 
			5.32549 3.55838 0.0 
			3.55838 5.32549 0.0 
			1.24954 6.28184 0.0 
			-1.24954 6.28184 0.0 
			-3.55838 5.32549 0.0 
			-5.32549 3.55838 0.0 
			-6.28184 1.24954 0.0 
			-6.28184 -1.24954 0.0 
			-5.32549 -3.55838 0.0 
			-3.55838 -5.32549 0.0 
			-1.24954 -6.28184 0.0 
			1.24954 -6.28184 0.0 
			3.55838 -5.32549 0.0 
			5.32549 -3.55838 0.0 
			6.28184 -1.24953 0.0 
			20.0001 0 0.0 
			18.4777 7.6537 0.0 
			14.1422 14.1422 0.0 
			7.6537 18.4777 0.0 
			-8.74231e-07 20.0001 0.0 
			-7.6537 18.4777 0.0 
			-14.1422 14.1422 0.0 
			-18.4777 7.65369 0.0 
			-20.0001 -1.74846e-06 0.0 
			-18.4777 -7.6537 0.0 
			-14.1422 -14.1422 0.0 
			-7.65369 -18.4777 0.0 
			2.62269e-06 -20.0001 0.0 
			7.6537 -18.4777 0.0 
			14.1422 -14.1422 0.0 
			18.4777 -7.65369 0.0 
		</DataArray>
		</Points>
		<Cells>
			<DataArray type="UInt32" Name="connectivity" Format="ascii">
				0 16 1 
				0 31 16 
				1 17 2 
				1 16 17 
				2 18 3 
				2 17 18 
				3 19 4 
				3 18 19 
				4 20 5 
				4 19 20 
				5 21 6 
				5 20 21 
				6 22 7 
				6 21 22 
				7 23 8 
				7 22 23 
				8 24 9 
				8 23 24 
				9 25 10 
				9 24 25 
				10 26 11 
				10 25 26 
				11 27 12 
				11 26 27 
				12 28 13 
				12 27 28 
				13 29 14 
				13 28 29 
				14 30 15 
				14 29 30 
				15 31 0 
				15 30 31 
				16 32 33 
				16 31 32 
				17 33 34 
				17 16 33 
				18 34 35 
				18 17 34 
				19 35 36 
				19 18 35 
				20 36 37 
				20 19 36 
				21 37 38 
				21 20 37 
				22 38 39 
				22 21 38 
				23 39 40 
				23 22 39 
				24 40 41 
				24 23 40 
				25 41 42 
				25 24 41 
				26 42 43 
				26 25 42 
				27 43 44 
				27 26 43 
				28 44 45 
				28 27 44 
				29 45 46 
				29 28 45 
				30 46 47 
				30 29 46 
				31 47 32 
				31 30 47 
				32 48 33 
				32 63 48 
				33 49 34 
				33 48 49 
				34 50 35 
				34 49 50 
				35 51 36 
				35 50 51 
				36 52 37 
				36 51 52 
				37 53 38 
				37 52 53 
				38 54 39 
				38 53 54 
				39 55 40 
				39 54 55 
				40 56 41 
				40 55 56 
				41 57 42 
				41 56 57 
				42 58 43 
				42 57 58 
				43 59 44 
				43 58 59 
				44 60 45 
				44 59 60 
				45 61 46 
				45 60 61 
				46 62 47 
				46 61 62 
				47 63 32 
				47 62 63 
				48 64 65 
				48 63 64 
				49 65 66 
				49 48 65 
				50 66 67 
				50 49 66 
				51 67 68 
				51 50 67 
				52 68 69 
				52 51 68 
				53 69 70 
				53 52 69 
				54 70 71 
				54 53 70 
				55 71 72 
				55 54 71 
				56 72 73 
				56 55 72 
				57 73 74 
				57 56 73 
				58 74 75 
				58 57 74 
				59 75 76 
				59 58 75 
				60 76 77 
				60 59 76 
				61 77 78 
				61 60 77 
				62 78 79 
				62 61 78 
				63 79 64 
				63 62 79 
			</DataArray>
			<DataArray type="UInt32" Name="offsets" Format="ascii">
				3
				6
				9
				12
				15
				18
				21
				24
				27
				30
				33
				36
				39
				42
				45
				48
				51
				54
				57
				60
				63
				66
				69
				72
				75
				78
				81
				84
				87
				90
				93
				96
				99
				102
				105
				108
				111
				114
				117
				120
				123
				126
				129
				132
				135
				138
				141
				144
				147
				150
				153
				156
				159
				162
				165
				168
				171
				174
				177
				180
				183
				186
				189
				192
				195
				198
				201
				204
				207
				210
				213
				216
				219
				222
				225
				228
				231
				234
				237
				240
				243
				246
				249
				252
				255
				258
				261
				264
				267
				270
				273
				276
				279
				282
				285
				288
				291
				294
				297
				300
				303
				306
				309
				312
				315
				318
				321
				324
				327
				330
				333
				336
				339
				342
				345
				348
				351
				354
				357
				360
				363
				366
				369
				372
				375
				378
				381
				384
			</DataArray>
			<DataArray type="Int32" Name="types" Format="ascii">
				5
				5
				5
				5
				5
				5
				5
				5
				5
				5
				5
				5
				5
				5
				5
				5
				5
				5
				5
				5
				5
				5
				5
				5
				5
				5
				5
				5
				5
				5
				5
				5
				5
				5
				5
				5
				5
				5
				5
				5
				5
				5
				5
				5
				5
				5
				5
				5
				5
				5
				5
				5
				5
				5
				5
				5
				5
				5
				5
				5
				5
				5
				5
				5
				5
				5
				5
				5
				5
				5
				5
				5
				5
				5
				5
				5
				5
				5
				5
				5
				5
				5
				5
				5
				5
				5
				5
				5
				5
				5
				5
				5
				5
				5
				5
				5
				5
				5
				5
				5
				5
				5
				5
				5
				5
				5
				5
				5
				5
				5
				5
				5
				5
				5
				5
				5
				5
				5
				5
				5
				5
				5
				5
				5
				5
				5
				5
				5
			</DataArray>
		</Cells>
	</Piece>
</UnstructuredGrid>
</VTKFile>