<VTKFile type="UnstructuredGrid" version="0.1" byte_order="LittleEndian">
<UnstructuredGrid>
	<Piece NumberOfPoints="80" NumberOfCells="128">
		<CellData Scalars="density" Vectors="velocity">
			<DataArray type="Float64" Name="density" Format="ascii">
				1.09924
				1.24409
				0.926783
				1.07881
				0.809993
				0.916014
				0.759108
				0.81317
				0.79851
				0.795305
				0.889471
				0.852602
				0.994186
				0.930084
				1.07385
				1.00115
				1.07387
				1.0742
				0.993889
				1.00099
				0.888946
				0.92975
				0.797505
				0.851971
				0.757292
				0.794077
				0.807327
				0.810981
				0.923702
				0.912836
				1.2398
				1.08527
				1.03518
				1.23423
				0.963325
				1.01525
				0.952387
				0.952751
				0.953278
				0.939281
				0.967534
				0.948099
				0.998983
				0.973821
				1.02892
				1.00861
				1.03943
				1.03599
				1.03935
				1.07039
				1.0288
				1.03589
				0.998741
				1.0084
				0.967174
				0.973465
				0.952928
				0.947668
				0.952208
				0.938917
				0.963344
				0.952509
				1.05597
				1.02198
				0.99673
				1.01286
				0.980625
				0.98833
				0.990082
				0.996477
				0.994821
				0.999161
				0.998625
				0.999229
				1.00431
				0.999608
				1.01081
				1.00063
				1.01749
				1.00104
				1.01744
				1.00496
				1.01076
				1.00103
				1.00423
				1.00059
				0.998517
				0.999548
				0.994693
				0.999149
				0.989934
				0.999058
				0.98046
				0.996328
				1.01868
				0.989139
				0.99539
				0.99594
				0.996369
				0.995088
				0.99707
				0.99617
				0.996856
				0.996915
				0.9984
				0.997269
				0.999826
				0.998913
				1.00033
				1.00047
				1
				1.00129
				1
				1.00251
				1.00033
				1.00128
				0.999824
				1.00046
				0.998413
				0.998914
				0.996904
				0.997296
				0.997163
				0.996981
				0.996528
				0.996295
				0.990785
				0.994622
			</DataArray>
			<DataArray type="Float64" Name="mach-number" Format="ascii">
				0.0563801
				0.106466
				0.279593
				0.276199
				0.467651
				0.430106
				0.547621
				0.537039
				0.499401
				0.527688
				0.375809
				0.432648
				0.227762
				0.318546
				0.0630899
				0.229841
				0.0636316
				0.14522
				0.228363
				0.230148
				0.376679
				0.319157
				0.50095
				0.433619
				0.550378
				0.529428
				0.471493
				0.539939
				0.284285
				0.433552
				0.060496
				0.279886
				0.285669
				0.111658
				0.350418
				0.278042
				0.387327
				0.353704
				0.417012
				0.401888
				0.414661
				0.41968
				0.378362
				0.391899
				0.339005
				0.333897
				0.320033
				0.273323
				0.320172
				0.171239
				0.339296
				0.273577
				0.378858
				0.334308
				0.415315
				0.392487
				0.417642
				0.420374
				0.387628
				0.402407
				0.350234
				0.353685
				0.287017
				0.277833
				0.292708
				0.303485
				0.363096
				0.369876
				0.382935
				0.382983
				0.391399
				0.38979
				0.388798
				0.390316
				0.376206
				0.383589
				0.360458
				0.373983
				0.340274
				0.368605
				0.340341
				0.366281
				0.360604
				0.368716
				0.376441
				0.374179
				0.389091
				0.383854
				0.391704
				0.39062
				0.383181
				0.390071
				0.363199
				0.383156
				0.294947
				0.369919
				0.366968
				0.304389
				0.384023
				0.377291
				0.385947
				0.384488
				0.386126
				0.386211
				0.384274
				0.385558
				0.381464
				0.382221
				0.379575
				0.378595
				0.379228
				0.375629
				0.379237
				0.371396
				0.379599
				0.37566
				0.381491
				0.378635
				0.384287
				0.382254
				0.386103
				0.38556
				0.385878
				0.386166
				0.383897
				0.384359
				0.365361
				0.376369
			</DataArray>
			<DataArray type="Float64" Name="pressure" Format="ascii">
				4.98081
				4.99942
				4.67042
				4.81328
				4.34969
				4.55144
				4.22146
				4.35056
				4.50639
				4.49995
				5.02865
				4.93942
				5.41514
				5.35019
				5.37628
				5.45275
				5.37641
				5.36936
				5.4138
				5.45251
				5.02549
				5.34858
				4.5001
				4.93612
				4.21072
				4.49383
				4.33647
				4.34094
				4.65741
				4.54076
				4.94574
				4.79539
				4.94535
				4.96314
				4.90376
				4.90313
				4.8536
				4.82896
				4.82193
				4.76026
				4.87071
				4.78582
				5.00011
				4.92818
				5.12636
				5.09583
				5.1596
				5.17531
				5.1593
				5.18138
				5.12553
				5.17478
				4.99855
				5.09457
				4.86851
				4.92605
				4.81957
				4.78289
				4.85165
				4.75701
				4.90274
				4.82629
				4.94232
				4.89936
				4.96165
				4.95864
				4.94835
				4.94751
				4.9335
				4.93726
				4.92424
				4.9321
				4.93449
				4.94202
				4.96528
				4.96887
				4.99628
				4.99694
				5.0081
				5.0085
				5.00794
				5.00532
				4.9958
				5.00821
				4.96448
				4.99638
				4.93345
				4.96808
				4.92314
				4.9411
				4.93242
				4.93115
				4.94727
				4.93631
				4.95549
				4.94524
				4.94252
				4.94095
				4.94243
				4.94023
				4.9419
				4.94105
				4.94199
				4.94083
				4.95035
				4.94486
				4.96035
				4.95525
				4.96838
				4.9654
				4.97098
				4.97146
				4.97094
				4.97287
				4.96829
				4.97138
				4.96026
				4.96527
				4.95032
				4.95512
				4.94207
				4.94479
				4.94212
				4.94085
				4.94287
				4.94125
				4.94606
				4.94205
			</DataArray>
			<DataArray type="Float64" Name="velocity" NumberOfComponents="3" Format="ascii">
				0.0863524 -0.112729 0
				0.252498 -0.00385519 0
				0.587317 -0.454504 0
				0.656505 -0.213321 0
				1.18121 -0.498935 0
				1.06438 -0.392353 0
				1.51842 -0.170804 0
				1.42997 -0.339772 0
				1.37407 0.287109 0
				1.48518 -0.000318588 0
				0.913564 0.532208 0
				1.19225 0.311009 0
				0.428008 0.460854 0
				0.821798 0.376605 0
				0.0656755 0.153576 0
				0.593946 0.223695 0
				0.0661911 -0.154915 0
				0.384156 -0.000776648 0
				0.429021 -0.462203 0
				0.594367 -0.225079 0
				0.915608 -0.533526 0
				0.82316 -0.377858 0
				1.37825 -0.287908 0
				1.19496 -0.311772 0
				1.52589 0.172213 0
				1.49021 0.00123709 0
				1.19058 0.504239 0
				1.4373 0.344783 0
				0.596436 0.463418 0
				1.07121 0.401903 0
				0.0802912 0.118289 0
				0.659833 0.221837 0
				0.735456 -0.0700417 0
				0.264892 -0.00450994 0
				0.933046 -0.0672502 0
				0.714542 -0.110133 0
				1.03288 -0.0594696 0
				0.93457 -0.119631 0
				1.10972 0.00201211 0
				1.06801 -0.0729703 0
				1.09611 0.101783 0
				1.11494 0.0403143 0
				0.98957 0.154584 0
				1.03115 0.157665 0
				0.88709 0.121212 0
				0.865605 0.198255 0
				0.841814 0.0558621 0
				0.707776 0.146718 0
				0.842126 -0.0567517 0
				0.445776 -0.000422847 0
				0.887727 -0.122058 0
				0.708284 -0.147554 0
				0.990776 -0.155159 0
				0.866559 -0.198919 0
				1.09781 -0.101819 0
				1.03266 -0.157944 0
				1.11133 -0.00126786 0
				1.11671 -0.0398507 0
				1.0335 0.0606944 0
				1.06915 0.0743073 0
				0.932387 0.0680826 0
				0.934161 0.121302 0
				0.731495 0.0685943 0
				0.711258 0.110391 0
				0.772632 -0.0118294 0
				0.794524 -2.49855e-05 0
				0.964971 -0.0146219 0
				0.979176 0.00274428 0
				1.01142 -0.00269315 0
				1.00868 0.00144382 0
				1.03013 0.0206273 0
				1.02465 0.0088517 0
				1.02147 0.0481998 0
				1.02678 0.0245057 0
				0.987738 0.0631268 0
				1.0112 0.038085 0
				0.946733 0.0530503 0
				0.988126 0.0378456 0
				0.892891 0.0247003 0
				0.975295 0.0225994 0
				0.893064 -0.0251176 0
				0.967207 -0.000197548 0
				0.947071 -0.0534232 0
				0.975562 -0.0229378 0
				0.988305 -0.0633508 0
				0.988601 -0.0380691 0
				1.02219 -0.0481779 0
				1.01185 -0.0381071 0
				1.0309 -0.0202563 0
				1.02753 -0.024218 0
				1.01203 0.0035213 0
				1.02535 -0.0081572 0
				0.965201 0.0159365 0
				1.00911 -0.000268299 0
				0.769613 0.0127596 0
				0.978669 -0.00137194 0
				0.967481 -0.0109526 0
				0.802196 0.00153506 0
				1.01199 0.00490974 0
				0.99468 -0.000103408 0
				1.01662 0.00913009 0
				1.01317 0.0057286 0
				1.01719 0.0113875 0
				1.01727 0.010433 0
				1.01241 0.00846199 0
				1.01576 0.0128471 0
				1.0053 0.00884529 0
				1.00718 0.0136451 0
				1.0009 0.00584074 0
				0.997879 0.0127854 0
				1.00043 0.00214288 0
				0.990305 0.00832289 0
				1.00045 -0.00224341 0
				0.978725 -5.44036e-05 0
				1.00095 -0.00591585 0
				0.990384 -0.00840435 0
				1.00536 -0.00887595 0
				0.997974 -0.0128218 0
				1.01243 -0.00844268 0
				1.00725 -0.0136198 0
				1.01711 -0.011308 0
				1.01574 -0.0127476 0
				1.01641 -0.00907242 0
				1.01712 -0.010286 0
				1.01162 -0.00494566 0
				1.01279 -0.00558191 0
				0.965808 0.0123633 0
				0.992663 0.00107999 0
			</DataArray>
		</CellData>
		<Points>
		<DataArray type="Float64" NumberOfComponents="3" Format="ascii">
			0.5 0 0
			0.46194 0.191342 0
			0.353553 0.353553 0
			0.191342 0.46194 0
			-2.18557e-08 0.5 0
			-0.191342 0.46194 0
			-0.353553 0.353553 0
			-0.46194 0.191342 0
			-0.5 -4.37114e-08 0
			-0.46194 -0.191342 0
			-0.353553 -0.353553 0
			-0.191342 -0.46194 0
			6.55671e-08 -0.5 0
			0.191342 -0.46194 0
			0.353553 -0.353553 0
			0.46194 -0.191342 0
			0.884503 0.175939 0
			0.749846 0.501031 0
			0.501031 0.749846 0
			0.175939 0.884503 0
			-0.175939 0.884503 0
			-0.501031 0.749846 0
			-0.749846 0.501031 0
			-0.884503 0.175939 0
			-0.884503 -0.175939 0
			-0.749846 -0.501031 0
			-0.501031 -0.749846 0
			-0.175939 -0.884503 0
			0.175939 -0.884503 0
			0.501031 -0.749846 0
			0.749846 -0.501031 0
			0.884503 -0.175938 0
			2.20148 0 0
			2.0339 0.842468 0
			1.55668 1.55668 0
			0.842468 2.0339 0
			-9.62295e-08 2.20148 0
			-0.842468 2.0339 0
			-1.55668 1.55668 0
			-2.0339 0.842468 0
			-2.20148 -1.92459e-07 0
			-2.0339 -0.842468 0
			-1.55668 -1.55668 0
			-0.842468 -2.0339 0
			2.88689e-07 -2.20148 0
			0.842468 -2.0339 0
			1.55668 -1.55668 0
			2.0339 -0.842468 0
			6.28184 1.24954 0
			5.32549 3.55838 0
			3.55838 5.32549 0
			1.24954 6.28184 0
			-1.24954 6.28184 0
			-3.55838 5.32549 0
			-5.32549 3.55838 0
			-6.28184 1.24954 0
			-6.28184 -1.24954 0
			-5.32549 -3.55838 0
			-3.55838 -5.32549 0
			-1.24954 -6.28184 0
			1.24954 -6.28184 0
			3.55838 -5.32549 0
			5.32549 -3.55838 0
			6.28184 -1.24953 0
			20.0001 0 0
			18.4777 7.6537 0
			14.1422 14.1422 0
			7.6537 18.4777 0
			-8.74231e-07 20.0001 0
			-7.6537 18.4777 0
			-14.1422 14.1422 0
			-18.4777 7.65369 0
			-20.0001 -1.74846e-06 0
			-18.4777 -7.6537 0
			-14.1422 -14.1422 0
			-7.65369 -18.4777 0
			2.62269e-06 -20.0001 0
			7.6537 -18.4777 0
			14.1422 -14.1422 0
			18.4777 -7.65369 0
		</DataArray>
		</Points>
		<Cells>
			<DataArray type="UInt32" Name="connectivity" Format="ascii">
				0 16 1
				0 31 16
				1 17 2
				1 16 17
				2 18 3
				2 17 18
				3 19 4
				3 18 19
				4 20 5
				4 19 20
				5 21 6
				5 20 21
				6 22 7
				6 21 22
				7 23 8
				7 22 23
				8 24 9
				8 23 24
				9 25 10
				9 24 25
				10 26 11
				10 25 26
				11 27 12
				11 26 27
				12 28 13
				12 27 28
				13 29 14
				13 28 29
				14 30 15
				14 29 30
				15 31 0
				15 30 31
				16 32 33
				16 31 32
				17 33 34
				17 16 33
				18 34 35
				18 17 34
				19 35 36
				19 18 35
				20 36 37
				20 19 36
				21 37 38
				21 20 37
				22 38 39
				22 21 38
				23 39 40
				23 22 39
				24 40 41
				24 23 40
				25 41 42
				25 24 41
				26 42 43
				26 25 42
				27 43 44
				27 26 43
				28 44 45
				28 27 44
				29 45 46
				29 28 45
				30 46 47
				30 29 46
				31 47 32
				31 30 47
				32 48 33
				32 63 48
				33 49 34
				33 48 49
				34 50 35
				34 49 50
				35 51 36
				35 50 51
				36 52 37
				36 51 52
				37 53 38
				37 52 53
				38 54 39
				38 53 54
				39 55 40
				39 54 55
				40 56 41
				40 55 56
				41 57 42
				41 56 57
				42 58 43
				42 57 58
				43 59 44
				43 58 59
				44 60 45
				44 59 60
				45 61 46
				45 60 61
				46 62 47
				46 61 62
				47 63 32
				47 62 63
				48 64 65
				48 63 64
				49 65 66
				49 48 65
				50 66 67
				50 49 66
				51 67 68
				51 50 67
				52 68 69
				52 51 68
				53 69 70
				53 52 69
				54 70 71
				54 53 70
				55 71 72
				55 54 71
				56 72 73
				56 55 72
				57 73 74
				57 56 73
				58 74 75
				58 57 74
				59 75 76
				59 58 75
				60 76 77
				60 59 76
				61 77 78
				61 60 77
				62 78 79
				62 61 78
				63 79 64
				63 62 79
			</DataArray>
			<DataArray type="UInt32" Name="offsets" Format="ascii">
				3
				6
				9
				12
				15
				18
				21
				24
				27
				30
				33
				36
				39
				42
				45
				48
				51
				54
				57
				60
				63
				66
				69
				72
				75
				78
				81
				84
				87
				90
				93
				96
				99
				102
				105
				108
				111
				114
				117
				120
				123
				126
				129
				132
				135
				138
				141
				144
				147
				150
				153
				156
				159
				162
				165
				168
				171
				174
				177
				180
				183
				186
				189
				192
				195
				198
				201
				204
				207
				210
				213
				216
				219
				222
				225
				228
				231
				234
				237
				240
				243
				246
				249
				252
				255
				258
				261
				264
				267
				270
				273
				276
				279
				282
				285
				288
				291
				294
				297
				300
				303
				306
				309
				312
				315
				318
				321
				324
				327
				330
				333
				336
				339
				342
				345
				348
				351
				354
				357
				360
				363
				366
				369
				372
				375
				378
				381
				384
			</DataArray>
			<DataArray type="Int32" Name="types" Format="ascii">
				5
				5
				5
				5
				5
				5
				5
				5
				5
				5
				5
				5
				5
				5
				5
				5
				5
				5
				5
				5
				5
				5
				5
				5
				5
				5
				5
				5
				5
				5
				5
				5
				5
				5
				5
				5
				5
				5
				5
				5
				5
				5
				5
				5
				5
				5
				5
				5
				5
				5
				5
				5
				5
				5
				5
				5
				5
				5
				5
				5
				5
				5
				5
				5
				5
				5
				5
				5
				5
				5
				5
				5
				5
				5
				5
				5
				5
				5
				5
				5
				5
				5
				5
				5
				5
				5
				5
				5
				5
				5
				5
				5
				5
				5
				5
				5
				5
				5
				5
				5
				5
				5
				5
				5
				5
				5
				5
				5
				5
				5
				5
				5
				5
				5
				5
				5
				5
				5
				5
				5
				5
				5
				5
				5
				5
				5
				5
				5
			</DataArray>
		</Cells>
	</Piece>
</UnstructuredGrid>
</VTKFile>