<VTKFile type="UnstructuredGrid" version="0.1" byte_order="LittleEndian">
<UnstructuredGrid>
	<Piece NumberOfPoints="80" NumberOfCells="128">
		<CellData Scalars="density" Vectors="velocity">
			<DataArray type="Float64" Name="density" Format="ascii">
				0.35646
				0.40191
				0.224613
				0.396723
				0.409913
				0.408793
				0.627226
				0.648357
				0.844322
				0.956105
				1.33998
				1.31108
				1.57277
				1.51838
				1.67804
				1.64969
				1.67804
				1.69301
				1.57277
				1.64969
				1.33998
				1.51838
				0.844322
				1.31108
				0.627226
				0.956105
				0.409913
				0.648357
				0.224613
				0.408793
				0.35646
				0.396723
				0.698714
				0.593554
				0.643718
				0.626615
				0.757295
				0.528471
				1.04802
				0.765683
				1.25185
				1.0153
				1.37431
				1.29838
				1.42739
				1.40092
				1.44695
				1.43
				1.44695
				1.43343
				1.42739
				1.43
				1.37431
				1.40092
				1.25185
				1.29838
				1.04802
				1.0153
				0.757295
				0.765683
				0.643718
				0.528471
				0.698714
				0.626615
				0.789268
				0.822177
				0.771963
				0.862387
				0.79904
				0.799646
				1.10103
				0.97998
				1.2363
				1.17591
				1.26614
				1.2387
				1.23409
				1.23094
				1.2136
				1.22356
				1.2136
				1.22053
				1.23409
				1.22356
				1.26614
				1.23094
				1.2363
				1.2387
				1.10103
				1.17591
				0.79904
				0.97998
				0.771963
				0.799646
				0.789268
				0.862387
				0.928011
				0.892308
				0.940465
				0.925401
				0.933439
				0.859472
				1.05117
				1.00414
				1.07698
				1.16952
				1.05871
				1.13898
				1.05005
				1.07171
				1.04401
				1.04853
				1.04401
				1.04243
				1.05005
				1.04853
				1.05871
				1.07171
				1.07698
				1.13898
				1.05117
				1.16952
				0.933439
				1.00414
				0.940464
				0.859472
				0.928011
				0.925401
			</DataArray>
			<DataArray type="Float64" Name="mach-number" Format="ascii">
				0.401551
				0.438614
				1.94999
				1.01974
				1.68478
				1.68871
				1.4528
				1.40948
				1.2163
				1.07656
				0.680102
				0.754518
				0.409505
				0.550587
				0.165278
				0.366276
				0.165278
				0.276619
				0.409505
				0.366276
				0.680102
				0.550587
				1.2163
				0.754518
				1.45279
				1.07656
				1.68478
				1.40948
				1.94999
				1.68871
				0.40155
				1.01974
				0.899865
				0.682299
				1.38207
				1.08634
				1.34897
				1.64674
				1.02373
				1.3355
				0.830258
				1.05734
				0.698787
				0.763692
				0.62074
				0.618767
				0.583716
				0.521497
				0.583716
				0.481154
				0.62074
				0.521497
				0.698787
				0.618767
				0.830258
				0.763692
				1.02373
				1.05734
				1.34897
				1.3355
				1.38207
				1.64674
				0.899865
				1.08634
				1.03481
				1.02008
				1.28608
				1.15584
				1.32438
				1.32083
				0.986714
				1.12658
				0.850943
				0.915095
				0.799787
				0.843315
				0.802635
				0.834658
				0.801957
				0.836484
				0.801957
				0.839847
				0.802635
				0.836484
				0.799787
				0.834658
				0.850943
				0.843314
				0.986714
				0.915095
				1.32438
				1.12658
				1.28608
				1.32083
				1.03481
				1.15584
				1.09923
				1.05797
				1.14788
				1.12785
				1.18133
				1.24213
				1.04927
				1.09874
				1.00916
				0.917591
				1.02562
				0.941555
				1.03568
				1.00656
				1.04459
				1.03089
				1.04459
				1.03864
				1.03568
				1.03089
				1.02562
				1.00656
				1.00916
				0.941555
				1.04927
				0.917591
				1.18133
				1.09874
				1.14788
				1.24213
				1.09923
				1.12785
			</DataArray>
			<DataArray type="Float64" Name="pressure" Format="ascii">
				0.262488
				0.3053
				0.0960185
				0.246656
				0.196899
				0.196101
				0.333141
				0.349407
				0.494222
				0.587415
				0.939653
				0.906591
				1.17863
				1.11048
				1.29888
				1.24479
				1.29887
				1.28937
				1.17863
				1.24479
				0.939653
				1.11048
				0.494222
				0.906591
				0.333141
				0.587415
				0.196899
				0.349407
				0.0960185
				0.196101
				0.262488
				0.246656
				0.453603
				0.406158
				0.344324
				0.373784
				0.413903
				0.255164
				0.647269
				0.420429
				0.825685
				0.619388
				0.938087
				0.871035
				0.988306
				0.971285
				1.00628
				1.00526
				1.00628
				1.01199
				0.988306
				1.00526
				0.938087
				0.971285
				0.825685
				0.871035
				0.647269
				0.619388
				0.413903
				0.420429
				0.344324
				0.255164
				0.453603
				0.373784
				0.480392
				0.506223
				0.425244
				0.502617
				0.436707
				0.437414
				0.680935
				0.578392
				0.799036
				0.744818
				0.827346
				0.800398
				0.800326
				0.794074
				0.783465
				0.786889
				0.783465
				0.783585
				0.800326
				0.786889
				0.827346
				0.794074
				0.799036
				0.800398
				0.680935
				0.744818
				0.436707
				0.578392
				0.425244
				0.437414
				0.480392
				0.502617
				0.550322
				0.537282
				0.546122
				0.541335
				0.537363
				0.481199
				0.633701
				0.594926
				0.656352
				0.736175
				0.640769
				0.710147
				0.633028
				0.652414
				0.627627
				0.632483
				0.627627
				0.627152
				0.633028
				0.632483
				0.640769
				0.652414
				0.656352
				0.710147
				0.633701
				0.736175
				0.537363
				0.594926
				0.546122
				0.481199
				0.550322
				0.541335
			</DataArray>
			<DataArray type="Float64" Name="velocity" NumberOfComponents="3" Format="ascii">
				0.374567 -0.161026 0
				0.45232 -4.64926e-07 0
				1.32864 -0.714438 0
				0.907617 -0.285235 0
				1.33465 -0.357134 0
				1.33723 -0.356395 0
				1.25224 -0.0364903 0
				1.22326 -0.05009 0
				1.07101 0.255479 0
				0.98165 0.182332 0
				0.575646 0.350322 0
				0.681864 0.293575 0
				0.294076 0.299093 0
				0.482384 0.278739 0
				0.125667 0.117516 0
				0.33775 0.166277 0
				0.125667 -0.117516 0
				0.285631 -2.30249e-08 0
				0.294076 -0.299093 0
				0.33775 -0.166277 0
				0.575646 -0.350322 0
				0.482384 -0.278739 0
				1.07101 -0.255479 0
				0.681864 -0.293575 0
				1.25224 0.0364903 0
				0.98165 -0.182331 0
				1.33465 0.357134 0
				1.22326 0.05009 0
				1.32863 0.714438 0
				1.33723 0.356395 0
				0.374566 0.161025 0
				0.907617 0.285234 0
				0.856197 -0.053802 0
				0.667816 2.55573e-08 0
				1.18614 -0.15328 0
				0.985533 -0.119486 0
				1.17919 -0.0438504 0
				1.32351 -0.285245 0
				0.94455 0.118349 0
				1.17046 -0.0328639 0
				0.778132 0.176168 0
				0.965217 0.152263 0
				0.664621 0.157833 0
				0.711138 0.205074 0
				0.601556 0.107871 0
				0.583761 0.175662 0
				0.574733 0.0376715 0
				0.507032 0.102835 0
				0.574733 -0.0376715 0
				0.478352 -6.07622e-09 0
				0.601556 -0.107871 0
				0.507032 -0.102835 0
				0.664621 -0.157833 0
				0.583761 -0.175662 0
				0.778132 -0.176168 0
				0.711138 -0.205074 0
				0.94455 -0.118349 0
				0.965217 -0.152263 0
				1.17919 0.0438504 0
				1.17046 0.0328639 0
				1.18614 0.15328 0
				1.32351 0.285245 0
				0.856197 0.0538019 0
				0.985533 0.119486 0
				0.954892 -0.0255053 0
				0.947081 -8.06522e-08 0
				1.12623 -0.0847463 0
				1.04387 -0.0204276 0
				1.15712 -0.056193 0
				1.15427 -0.0607837 0
				0.914492 0.0817751 0
				1.02249 0.0568715 0
				0.80307 0.101378 0
				0.856345 0.0961281 0
				0.760744 0.0802374 0
				0.797935 0.0815273 0
				0.76287 0.0541372 0
				0.790837 0.0612271 0
				0.762152 0.0197204 0
				0.79314 0.0302465 0
				0.762152 -0.0197204 0
				0.796219 -4.09465e-09 0
				0.76287 -0.0541372 0
				0.79314 -0.0302465 0
				0.760744 -0.0802374 0
				0.790837 -0.0612271 0
				0.80307 -0.101378 0
				0.797935 -0.0815273 0
				0.914493 -0.0817751 0
				0.856345 -0.0961281 0
				1.15712 0.056193 0
				1.02249 -0.0568715 0
				1.12623 0.0847463 0
				1.15427 0.0607837 0
				0.954892 0.0255052 0
				1.04387 0.0204276 0
				1.00153 -0.00965615 0
				0.971359 -4.94565e-09 0
				1.03497 -0.00502886 0
				1.0206 -0.0110836 0
				1.06054 0.00220004 0
				1.09846 -0.052447 0
				0.962227 0.0576657 0
				0.999876 0.0398662 0
				0.931054 0.0453364 0
				0.859329 0.059543 0
				0.943765 0.0246595 0
				0.879361 0.0237911 0
				0.951418 0.00997265 0
				0.929118 0.015218 0
				0.958312 0.00225187 0
				0.947328 0.00602338 0
				0.958312 -0.00225187 0
				0.953215 -4.68483e-09 0
				0.951418 -0.00997266 0
				0.947328 -0.00602339 0
				0.943765 -0.0246595 0
				0.929118 -0.015218 0
				0.931054 -0.0453365 0
				0.879361 -0.0237911 0
				0.962227 -0.0576657 0
				0.859329 -0.0595431 0
				1.06054 -0.00220005 0
				0.999876 -0.0398662 0
				1.03497 0.00502888 0
				1.09846 0.052447 0
				1.00153 0.00965612 0
				1.0206 0.0110836 0
			</DataArray>
		</CellData>
		<Points>
		<DataArray type="Float64" NumberOfComponents="3" Format="ascii">
			0.5 0 0
			0.46194 0.191342 0
			0.353553 0.353553 0
			0.191342 0.46194 0
			-2.18557e-08 0.5 0
			-0.191342 0.46194 0
			-0.353553 0.353553 0
			-0.46194 0.191342 0
			-0.5 -4.37114e-08 0
			-0.46194 -0.191342 0
			-0.353553 -0.353553 0
			-0.191342 -0.46194 0
			6.55671e-08 -0.5 0
			0.191342 -0.46194 0
			0.353553 -0.353553 0
			0.46194 -0.191342 0
			0.884503 0.175939 0
			0.749846 0.501031 0
			0.501031 0.749846 0
			0.175939 0.884503 0
			-0.175939 0.884503 0
			-0.501031 0.749846 0
			-0.749846 0.501031 0
			-0.884503 0.175939 0
			-0.884503 -0.175939 0
			-0.749846 -0.501031 0
			-0.501031 -0.749846 0
			-0.175939 -0.884503 0
			0.175939 -0.884503 0
			0.501031 -0.749846 0
			0.749846 -0.501031 0
			0.884503 -0.175938 0
			2.20148 0 0
			2.0339 0.842468 0
			1.55668 1.55668 0
			0.842468 2.0339 0
			-9.62295e-08 2.20148 0
			-0.842468 2.0339 0
			-1.55668 1.55668 0
			-2.0339 0.842468 0
			-2.20148 -1.92459e-07 0
			-2.0339 -0.842468 0
			-1.55668 -1.55668 0
			-0.842468 -2.0339 0
			2.88689e-07 -2.20148 0
			0.842468 -2.0339 0
			1.55668 -1.55668 0
			2.0339 -0.842468 0
			6.28184 1.24954 0
			5.32549 3.55838 0
			3.55838 5.32549 0
			1.24954 6.28184 0
			-1.24954 6.28184 0
			-3.55838 5.32549 0
			-5.32549 3.55838 0
			-6.28184 1.24954 0
			-6.28184 -1.24954 0
			-5.32549 -3.55838 0
			-3.55838 -5.32549 0
			-1.24954 -6.28184 0
			1.24954 -6.28184 0
			3.55838 -5.32549 0
			5.32549 -3.55838 0
			6.28184 -1.24953 0
			20.0001 0 0
			18.4777 7.6537 0
			14.1422 14.1422 0
			7.6537 18.4777 0
			-8.74231e-07 20.0001 0
			-7.6537 18.4777 0
			-14.1422 14.1422 0
			-18.4777 7.65369 0
			-20.0001 -1.74846e-06 0
			-18.4777 -7.6537 0
			-14.1422 -14.1422 0
			-7.65369 -18.4777 0
			2.62269e-06 -20.0001 0
			7.6537 -18.4777 0
			14.1422 -14.1422 0
			18.4777 -7.65369 0
		</DataArray>
		</Points>
		<Cells>
			<DataArray type="UInt32" Name="connectivity" Format="ascii">
				0 16 1
				0 31 16
				1 17 2
				1 16 17
				2 18 3
				2 17 18
				3 19 4
				3 18 19
				4 20 5
				4 19 20
				5 21 6
				5 20 21
				6 22 7
				6 21 22
				7 23 8
				7 22 23
				8 24 9
				8 23 24
				9 25 10
				9 24 25
				10 26 11
				10 25 26
				11 27 12
				11 26 27
				12 28 13
				12 27 28
				13 29 14
				13 28 29
				14 30 15
				14 29 30
				15 31 0
				15 30 31
				16 32 33
				16 31 32
				17 33 34
				17 16 33
				18 34 35
				18 17 34
				19 35 36
				19 18 35
				20 36 37
				20 19 36
				21 37 38
				21 20 37
				22 38 39
				22 21 38
				23 39 40
				23 22 39
				24 40 41
				24 23 40
				25 41 42
				25 24 41
				26 42 43
				26 25 42
				27 43 44
				27 26 43
				28 44 45
				28 27 44
				29 45 46
				29 28 45
				30 46 47
				30 29 46
				31 47 32
				31 30 47
				32 48 33
				32 63 48
				33 49 34
				33 48 49
				34 50 35
				34 49 50
				35 51 36
				35 50 51
				36 52 37
				36 51 52
				37 53 38
				37 52 53
				38 54 39
				38 53 54
				39 55 40
				39 54 55
				40 56 41
				40 55 56
				41 57 42
				41 56 57
				42 58 43
				42 57 58
				43 59 44
				43 58 59
				44 60 45
				44 59 60
				45 61 46
				45 60 61
				46 62 47
				46 61 62
				47 63 32
				47 62 63
				48 64 65
				48 63 64
				49 65 66
				49 48 65
				50 66 67
				50 49 66
				51 67 68
				51 50 67
				52 68 69
				52 51 68
				53 69 70
				53 52 69
				54 70 71
				54 53 70
				55 71 72
				55 54 71
				56 72 73
				56 55 72
				57 73 74
				57 56 73
				58 74 75
				58 57 74
				59 75 76
				59 58 75
				60 76 77
				60 59 76
				61 77 78
				61 60 77
				62 78 79
				62 61 78
				63 79 64
				63 62 79
			</DataArray>
			<DataArray type="UInt32" Name="offsets" Format="ascii">
				3
				6
				9
				12
				15
				18
				21
				24
				27
				30
				33
				36
				39
				42
				45
				48
				51
				54
				57
				60
				63
				66
				69
				72
				75
				78
				81
				84
				87
				90
				93
				96
				99
				102
				105
				108
				111
				114
				117
				120
				123
				126
				129
				132
				135
				138
				141
				144
				147
				150
				153
				156
				159
				162
				165
				168
				171
				174
				177
				180
				183
				186
				189
				192
				195
				198
				201
				204
				207
				210
				213
				216
				219
				222
				225
				228
				231
				234
				237
				240
				243
				246
				249
				252
				255
				258
				261
				264
				267
				270
				273
				276
				279
				282
				285
				288
				291
				294
				297
				300
				303
				306
				309
				312
				315
				318
				321
				324
				327
				330
				333
				336
				339
				342
				345
				348
				351
				354
				357
				360
				363
				366
				369
				372
				375
				378
				381
				384
			</DataArray>
			<DataArray type="Int32" Name="types" Format="ascii">
				5
				5
				5
				5
				5
				5
				5
				5
				5
				5
				5
				5
				5
				5
				5
				5
				5
				5
				5
				5
				5
				5
				5
				5
				5
				5
				5
				5
				5
				5
				5
				5
				5
				5
				5
				5
				5
				5
				5
				5
				5
				5
				5
				5
				5
				5
				5
				5
				5
				5
				5
				5
				5
				5
				5
				5
				5
				5
				5
				5
				5
				5
				5
				5
				5
				5
				5
				5
				5
				5
				5
				5
				5
				5
				5
				5
				5
				5
				5
				5
				5
				5
				5
				5
				5
				5
				5
				5
				5
				5
				5
				5
				5
				5
				5
				5
				5
				5
				5
				5
				5
				5
				5
				5
				5
				5
				5
				5
				5
				5
				5
				5
				5
				5
				5
				5
				5
				5
				5
				5
				5
				5
				5
				5
				5
				5
				5
				5
			</DataArray>
		</Cells>
	</Piece>
</UnstructuredGrid>
</VTKFile>