<VTKFile type="UnstructuredGrid" version="0.1" byte_order="LittleEndian">
<UnstructuredGrid>
	<Piece NumberOfPoints="80" NumberOfCells="128">
		<PointData Scalars="density" Vectors="velocity">
			<DataArray type="Float64" Name="density" Format="ascii">
				0.254935
				0.250075
				0.23585
				0.217603
				0.210982
				0.224091
				0.245489
				0.262191
				0.268307
				0.262191
				0.245489
				0.224092
				0.210983
				0.217603
				0.23585
				0.250076
				0.252633
				0.250435
				0.245055
				0.24047
				0.241157
				0.246575
				0.252478
				0.255951
				0.255951
				0.252478
				0.246575
				0.241157
				0.24047
				0.245055
				0.250435
				0.252633
				0.249654
				0.250129
				0.249856
				0.249075
				0.248784
				0.249299
				0.250221
				0.250959
				0.251225
				0.250959
				0.250221
				0.249299
				0.248784
				0.249075
				0.249856
				0.250129
				0.24967
				0.249978
				0.249931
				0.249911
				0.249969
				0.250087
				0.2502
				0.250263
				0.250263
				0.2502
				0.250087
				0.249969
				0.249911
				0.249931
				0.249978
				0.24967
				0.24982
				0.249934
				0.249992
				0.249987
				0.250001
				0.250034
				0.25007
				0.250094
				0.250103
				0.250094
				0.25007
				0.250034
				0.250001
				0.249987
				0.249992
				0.249934
			</DataArray>
			<DataArray type="Float64" Name="mach-number" Format="ascii">
				0.0631166
				0.215143
				0.420536
				0.602259
				0.675132
				0.587347
				0.413602
				0.218296
				0.0688396
				0.218295
				0.413601
				0.587346
				0.675131
				0.602258
				0.420535
				0.215141
				0.286615
				0.346227
				0.409238
				0.455124
				0.454926
				0.408313
				0.345936
				0.302272
				0.302272
				0.345935
				0.408312
				0.454926
				0.455123
				0.409237
				0.346226
				0.286615
				0.350016
				0.364677
				0.379921
				0.389571
				0.393137
				0.387582
				0.37737
				0.368973
				0.365896
				0.368972
				0.37737
				0.387582
				0.393137
				0.389571
				0.379921
				0.364677
				0.37472
				0.380201
				0.381679
				0.38196
				0.381308
				0.380027
				0.378806
				0.378124
				0.378124
				0.378806
				0.380027
				0.381307
				0.38196
				0.381679
				0.380201
				0.37472
				0.377945
				0.379456
				0.380574
				0.380638
				0.380461
				0.380132
				0.379772
				0.379517
				0.379428
				0.379517
				0.379772
				0.380132
				0.380461
				0.380638
				0.380574
				0.379456
			</DataArray>
			<DataArray type="Float64" Name="pressure" Format="ascii">
				1.29572
				1.2606
				1.15894
				1.03209
				0.983747
				1.06731
				1.21029
				1.32675
				1.37046
				1.32675
				1.21029
				1.06731
				0.983749
				1.03209
				1.15894
				1.26061
				1.26678
				1.24588
				1.2076
				1.176
				1.1795
				1.21531
				1.25566
				1.27982
				1.27982
				1.25566
				1.21531
				1.1795
				1.176
				1.2076
				1.24588
				1.26678
				1.24135
				1.24047
				1.2361
				1.23046
				1.22835
				1.2319
				1.23828
				1.2434
				1.24524
				1.2434
				1.23828
				1.2319
				1.22835
				1.23046
				1.2361
				1.24047
				1.23636
				1.23649
				1.23607
				1.23594
				1.23636
				1.23718
				1.23796
				1.2384
				1.2384
				1.23796
				1.23718
				1.23636
				1.23594
				1.23607
				1.23649
				1.23636
				1.23636
				1.23649
				1.23652
				1.23651
				1.23662
				1.23684
				1.23709
				1.23726
				1.23732
				1.23726
				1.23709
				1.23684
				1.23662
				1.23651
				1.23652
				1.23649
			</DataArray>
			<DataArray type="Float64" Name="velocity" NumberOfComponents="3" Format="ascii">
				0.168364 -1.89972e-06 0.0 
				0.371548 -0.434288 0.0 
				0.878268 -0.667294 0.0 
				1.46222 -0.520021 0.0 
				1.72493 7.20355e-05 0.0 
				1.42619 0.515997 0.0 
				0.853372 0.672667 0.0 
				0.368882 0.448905 0.0 
				0.184085 9.97725e-07 0.0 
				0.368881 -0.448903 0.0 
				0.85337 -0.672665 0.0 
				1.42619 -0.515996 0.0 
				1.72493 -7.21473e-05 0.0 
				1.46221 0.520019 0.0 
				0.878265 0.667292 0.0 
				0.371547 0.434285 0.0 
				0.756563 -0.0655498 0.0 
				0.900713 -0.153656 0.0 
				1.06217 -0.164954 0.0 
				1.18914 -0.0643445 0.0 
				1.18645 0.0973185 0.0 
				1.0542 0.197645 0.0 
				0.895054 0.179199 0.0 
				0.796672 0.0702129 0.0 
				0.796671 -0.0702117 0.0 
				0.895053 -0.179198 0.0 
				1.0542 -0.197645 0.0 
				1.18644 -0.0973182 0.0 
				1.18914 0.064344 0.0 
				1.06217 0.164953 0.0 
				0.900712 0.153655 0.0 
				0.756563 0.0655483 0.0 
				0.923485 -3.82219e-07 0.0 
				0.960691 -0.0206316 0.0 
				0.999557 -0.024503 0.0 
				1.02441 -0.0147782 0.0 
				1.03357 0.00965048 0.0 
				1.01896 0.030859 0.0 
				0.992696 0.0345848 0.0 
				0.971527 0.0215179 0.0 
				0.963866 2.536e-07 0.0 
				0.971527 -0.0215174 0.0 
				0.992695 -0.0345844 0.0 
				1.01896 -0.0308588 0.0 
				1.03357 -0.00965055 0.0 
				1.02441 0.0147779 0.0 
				0.999557 0.0245024 0.0 
				0.960691 0.020631 0.0 
				0.986637 -0.00318917 0.0 
				1.0005 -0.00331976 0.0 
				1.00432 -0.00155433 0.0 
				1.00505 0.00105984 0.0 
				1.00338 0.00365792 0.0 
				1.0001 0.00468281 0.0 
				0.996984 0.00368656 0.0 
				0.995244 0.00136511 0.0 
				0.995244 -0.00136498 0.0 
				0.996984 -0.00368646 0.0 
				1.0001 -0.00468275 0.0 
				1.00338 -0.00365795 0.0 
				1.00505 -0.00105995 0.0 
				1.00432 0.00155415 0.0 
				1.0005 0.00331957 0.0 
				0.986637 0.00318897 0.0 
				0.994837 -3.41514e-08 0.0 
				0.998641 -0.00141765 0.0 
				1.00148 -0.000641625 0.0 
				1.00165 5.94948e-05 0.0 
				1.0012 0.000765566 0.0 
				1.00036 0.00120138 0.0 
				0.999442 0.00116009 0.0 
				0.998789 0.000686379 0.0 
				0.998562 2.232e-08 0.0 
				0.998789 -0.000686339 0.0 
				0.999442 -0.00116007 0.0 
				1.00036 -0.00120138 0.0 
				1.0012 -0.000765602 0.0 
				1.00165 -5.95568e-05 0.0 
				1.00148 0.000641551 0.0 
				0.998641 0.00141758 0.0 
			</DataArray>
		</PointData>
		<Points>
		<DataArray type="Float64" NumberOfComponents="3" Format="ascii">
			0.5 0 0.0 
			0.46194 0.191342 0.0 
			0.353553 0.353553 0.0 
			0.191342 0.46194 0.0 
			-2.18557e-08 0.5 0.0 
			-0.191342 0.46194 0.0 
			-0.353553 0.353553 0.0 
			-0.46194 0.191342 0.0 
			-0.5 -4.37114e-08 0.0 
			-0.46194 -0.191342 0.0 
			-0.353553 -0.353553 0.0 
			-0.191342 -0.46194 0.0 
			6.55671e-08 -0.5 0.0 
			0.191342 -0.46194 0.0 
			0.353553 -0.353553 0.0 
			0.46194 -0.191342 0.0 
			0.884503 0.175939 0.0 
			0.749846 0.501031 0.0 
			0.501031 0.749846 0.0 
			0.175939 0.884503 0.0 
			-0.175939 0.884503 0.0 
			-0.501031 0.749846 0.0 
			-0.749846 0.501031 0.0 
			-0.884503 0.175939 0.0 
			-0.884503 -0.175939 0.0 
			-0.749846 -0.501031 0.0 
			-0.501031 -0.749846 0.0 
			-0.175939 -0.884503 0.0 
			0.175939 -0.884503 0.0 
			0.501031 -0.749846 0.0 
			0.749846 -0.501031 0.0 
			0.884503 -0.175938 0.0 
			2.20148 0 0.0 
			2.0339 0.842468 0.0 
			1.55668 1.55668 0.0 
			0.842468 2.0339 0.0 
			-9.62295e-08 2.20148 0.0 
			-0.842468 2.0339 0.0 
			-1.55668 1.55668 0.0 
			-2.0339 0.842468 0.0 
			-2.20148 -1.92459e-07 0.0 
			-2.0339 -0.842468 0.0 
			-1.55668 -1.55668 0.0 
			-0.842468 -2.0339 0.0 
			2.88689e-07 -2.20148 0.0 
			0.842468 -2.0339 0.0 
			1.55668 -1.55668 0.0 
			2.0339 -0.842468 0.0 
			6.28184 1.24954 0.0 
			5.32549 3.55838 0.0 
			3.55838 5.32549 0.0 
			1.24954 6.28184 0.0 
			-1.24954 6.28184 0.0 
			-3.55838 5.32549 0.0 
			-5.32549 3.55838 0.0 
			-6.28184 1.24954 0.0 
			-6.28184 -1.24954 0.0 
			-5.32549 -3.55838 0.0 
			-3.55838 -5.32549 0.0 
			-1.24954 -6.28184 0.0 
			1.24954 -6.28184 0.0 
			3.55838 -5.32549 0.0 
			5.32549 -3.55838 0.0 
			6.28184 -1.24953 0.0 
			20.0001 0 0.0 
			18.4777 7.6537 0.0 
			14.1422 14.1422 0.0 
			7.6537 18.4777 0.0 
			-8.74231e-07 20.0001 0.0 
			-7.6537 18.4777 0.0 
			-14.1422 14.1422 0.0 
			-18.4777 7.65369 0.0 
			-20.0001 -1.74846e-06 0.0 
			-18.4777 -7.6537 0.0 
			-14.1422 -14.1422 0.0 
			-7.65369 -18.4777 0.0 
			2.62269e-06 -20.0001 0.0 
			7.6537 -18.4777 0.0 
			14.1422 -14.1422 0.0 
			18.4777 -7.65369 0.0 
		</DataArray>
		</Points>
		<Cells>
			<DataArray type="UInt32" Name="connectivity" Format="ascii">
				0 16 1 
				0 31 16 
				1 17 2 
				1 16 17 
				2 18 3 
				2 17 18 
				3 19 4 
				3 18 19 
				4 20 5 
				4 19 20 
				5 21 6 
				5 20 21 
				6 22 7 
				6 21 22 
				7 23 8 
				7 22 23 
				8 24 9 
				8 23 24 
				9 25 10 
				9 24 25 
				10 26 11 
				10 25 26 
				11 27 12 
				11 26 27 
				12 28 13 
				12 27 28 
				13 29 14 
				13 28 29 
				14 30 15 
				14 29 30 
				15 31 0 
				15 30 31 
				16 32 33 
				16 31 32 
				17 33 34 
				17 16 33 
				18 34 35 
				18 17 34 
				19 35 36 
				19 18 35 
				20 36 37 
				20 19 36 
				21 37 38 
				21 20 37 
				22 38 39 
				22 21 38 
				23 39 40 
				23 22 39 
				24 40 41 
				24 23 40 
				25 41 42 
				25 24 41 
				26 42 43 
				26 25 42 
				27 43 44 
				27 26 43 
				28 44 45 
				28 27 44 
				29 45 46 
				29 28 45 
				30 46 47 
				30 29 46 
				31 47 32 
				31 30 47 
				32 48 33 
				32 63 48 
				33 49 34 
				33 48 49 
				34 50 35 
				34 49 50 
				35 51 36 
				35 50 51 
				36 52 37 
				36 51 52 
				37 53 38 
				37 52 53 
				38 54 39 
				38 53 54 
				39 55 40 
				39 54 55 
				40 56 41 
				40 55 56 
				41 57 42 
				41 56 57 
				42 58 43 
				42 57 58 
				43 59 44 
				43 58 59 
				44 60 45 
				44 59 60 
				45 61 46 
				45 60 61 
				46 62 47 
				46 61 62 
				47 63 32 
				47 62 63 
				48 64 65 
				48 63 64 
				49 65 66 
				49 48 65 
				50 66 67 
				50 49 66 
				51 67 68 
				51 50 67 
				52 68 69 
				52 51 68 
				53 69 70 
				53 52 69 
				54 70 71 
				54 53 70 
				55 71 72 
				55 54 71 
				56 72 73 
				56 55 72 
				57 73 74 
				57 56 73 
				58 74 75 
				58 57 74 
				59 75 76 
				59 58 75 
				60 76 77 
				60 59 76 
				61 77 78 
				61 60 77 
				62 78 79 
				62 61 78 
				63 79 64 
				63 62 79 
			</DataArray>
			<DataArray type="UInt32" Name="offsets" Format="ascii">
				3
				6
				9
				12
				15
				18
				21
				24
				27
				30
				33
				36
				39
				42
				45
				48
				51
				54
				57
				60
				63
				66
				69
				72
				75
				78
				81
				84
				87
				90
				93
				96
				99
				102
				105
				108
				111
				114
				117
				120
				123
				126
				129
				132
				135
				138
				141
				144
				147
				150
				153
				156
				159
				162
				165
				168
				171
				174
				177
				180
				183
				186
				189
				192
				195
				198
				201
				204
				207
				210
				213
				216
				219
				222
				225
				228
				231
				234
				237
				240
				243
				246
				249
				252
				255
				258
				261
				264
				267
				270
				273
				276
				279
				282
				285
				288
				291
				294
				297
				300
				303
				306
				309
				312
				315
				318
				321
				324
				327
				330
				333
				336
				339
				342
				345
				348
				351
				354
				357
				360
				363
				366
				369
				372
				375
				378
				381
				384
			</DataArray>
			<DataArray type="Int32" Name="types" Format="ascii">
				5
				5
				5
				5
				5
				5
				5
				5
				5
				5
				5
				5
				5
				5
				5
				5
				5
				5
				5
				5
				5
				5
				5
				5
				5
				5
				5
				5
				5
				5
				5
				5
				5
				5
				5
				5
				5
				5
				5
				5
				5
				5
				5
				5
				5
				5
				5
				5
				5
				5
				5
				5
				5
				5
				5
				5
				5
				5
				5
				5
				5
				5
				5
				5
				5
				5
				5
				5
				5
				5
				5
				5
				5
				5
				5
				5
				5
				5
				5
				5
				5
				5
				5
				5
				5
				5
				5
				5
				5
				5
				5
				5
				5
				5
				5
				5
				5
				5
				5
				5
				5
				5
				5
				5
				5
				5
				5
				5
				5
				5
				5
				5
				5
				5
				5
				5
				5
				5
				5
				5
				5
				5
				5
				5
				5
				5
				5
				5
			</DataArray>
		</Cells>
	</Piece>
</UnstructuredGrid>
</VTKFile>