<VTKFile type="UnstructuredGrid" version="0.1" byte_order="LittleEndian">
<UnstructuredGrid>
	<Piece NumberOfPoints="80" NumberOfCells="128">
		<CellData Scalars="density" Vectors="velocity">
			<DataArray type="Float64" Name="density" Format="ascii">
				1.02384
				1.01001
				0.978884
				0.99779
				0.8971
				0.956231
				0.820266
				0.898247
				0.833081
				0.88488
				0.924211
				0.938417
				1.01705
				1.00883
				1.07076
				1.06029
				1.07076
				1.07907
				1.01705
				1.06029
				0.924212
				1.00883
				0.833082
				0.938417
				0.820267
				0.884881
				0.897101
				0.898248
				0.978884
				0.956232
				1.02384
				0.99779
				1.00572
				1.01708
				1.00376
				1.01678
				0.992765
				1.0004
				0.983502
				0.976132
				0.984707
				0.962818
				0.995502
				0.973368
				1.00736
				0.995942
				1.01422
				1.01419
				1.01422
				1.02083
				1.00736
				1.01419
				0.995502
				0.995942
				0.984707
				0.973368
				0.983502
				0.962818
				0.992766
				0.976133
				1.00376
				1.0004
				1.00572
				1.01678
				0.999497
				0.995643
				1.00094
				0.999094
				0.997371
				0.999818
				0.995362
				0.998901
				0.99625
				0.998465
				0.999413
				0.999329
				1.00259
				1.00091
				1.00435
				1.00215
				1.00435
				1.0026
				1.00259
				1.00215
				0.999413
				1.00091
				0.99625
				0.999329
				0.995362
				0.998465
				0.997371
				0.998901
				1.00094
				0.999818
				0.999497
				0.999094
				0.998834
				0.997642
				1.00003
				0.999943
				0.999941
				0.999672
				0.999964
				0.999588
				1.00014
				0.999765
				1.00039
				1.00017
				1.00061
				1.00062
				1.00072
				1.00093
				1.00072
				1.00104
				1.00061
				1.00093
				1.00039
				1.00062
				1.00014
				1.00017
				0.999964
				0.999765
				0.999941
				0.999588
				1.00003
				0.999672
				0.998834
				0.999943
			</DataArray>
			<DataArray type="Float64" Name="mach-number" Format="ascii">
				0.144909
				0.167628
				0.344453
				0.26671
				0.557424
				0.430343
				0.722435
				0.573776
				0.709958
				0.622281
				0.543706
				0.546232
				0.339159
				0.40733
				0.145775
				0.260215
				0.145775
				0.180783
				0.339159
				0.260214
				0.543705
				0.407329
				0.709956
				0.546231
				0.722432
				0.62228
				0.557422
				0.573775
				0.344452
				0.430341
				0.144908
				0.266709
				0.315439
				0.269268
				0.356882
				0.313719
				0.391199
				0.372673
				0.419922
				0.429289
				0.420732
				0.458763
				0.392865
				0.434096
				0.358461
				0.374943
				0.336948
				0.320045
				0.336948
				0.298177
				0.35846
				0.320045
				0.392865
				0.374942
				0.420731
				0.434095
				0.419921
				0.458762
				0.391199
				0.429288
				0.356882
				0.372673
				0.315438
				0.313719
				0.354579
				0.35808
				0.376251
				0.372867
				0.385205
				0.38135
				0.391873
				0.385494
				0.390138
				0.386261
				0.381851
				0.383024
				0.37327
				0.378309
				0.368428
				0.374784
				0.368428
				0.37355
				0.373269
				0.374784
				0.381851
				0.378309
				0.390138
				0.383024
				0.391873
				0.38626
				0.385205
				0.385494
				0.37625
				0.38135
				0.354579
				0.372867
				0.377092
				0.370724
				0.380809
				0.379234
				0.381144
				0.381615
				0.380972
				0.381954
				0.380507
				0.381566
				0.379879
				0.38056
				0.379336
				0.3794
				0.379044
				0.378581
				0.379044
				0.3783
				0.379336
				0.378581
				0.379879
				0.3794
				0.380507
				0.38056
				0.380972
				0.381566
				0.381144
				0.381954
				0.380809
				0.381615
				0.377092
				0.379234
			</DataArray>
			<DataArray type="Float64" Name="pressure" Format="ascii">
				5.18234
				5.0913
				4.85785
				4.98882
				4.28967
				4.68021
				3.7688
				4.28639
				3.83735
				4.19146
				4.42671
				4.52998
				5.05657
				4.99918
				5.43888
				5.35337
				5.43888
				5.48136
				5.05658
				5.35337
				4.42672
				4.99918
				3.83735
				4.52999
				3.76881
				4.19147
				4.28968
				4.28639
				4.85785
				4.68021
				5.18234
				4.98883
				5.02649
				5.11601
				4.98586
				5.08539
				4.90475
				4.9608
				4.83626
				4.7945
				4.84215
				4.70234
				4.91671
				4.77128
				4.99866
				4.92566
				5.04593
				5.05252
				5.04593
				5.09844
				4.99866
				5.05252
				4.91671
				4.92567
				4.84216
				4.77128
				4.83627
				4.70234
				4.90475
				4.7945
				4.98586
				4.9608
				5.02649
				5.0854
				4.96634
				4.94398
				4.95433
				4.94711
				4.92939
				4.94474
				4.91465
				4.93782
				4.9206
				4.93509
				4.94248
				4.94144
				4.96438
				4.95253
				4.97656
				4.96122
				4.97656
				4.96431
				4.96438
				4.96122
				4.94248
				4.95253
				4.9206
				4.94144
				4.91465
				4.93509
				4.92939
				4.93782
				4.95433
				4.94474
				4.96634
				4.94711
				4.94442
				4.9446
				4.94605
				4.94679
				4.94583
				4.94392
				4.94607
				4.9434
				4.94728
				4.94466
				4.94905
				4.94747
				4.95053
				4.9506
				4.95129
				4.95275
				4.95129
				4.95347
				4.95053
				4.95275
				4.94905
				4.9506
				4.94728
				4.94747
				4.94607
				4.94466
				4.94583
				4.9434
				4.94605
				4.94392
				4.94442
				4.94679
			</DataArray>
			<DataArray type="Float64" Name="velocity" NumberOfComponents="3" Format="ascii">
				0.320648 -0.21445 0.0 
				0.445308 -1.7477e-06 0.0 
				0.71691 -0.557107 0.0 
				0.634442 -0.308885 0.0 
				1.31211 -0.598721 0.0 
				1.0237 -0.470133 0.0 
				1.81814 -0.226999 0.0 
				1.43455 -0.376155 0.0 
				1.76432 0.370902 0.0 
				1.60248 -0.000509192 0.0 
				1.22365 0.69639 0.0 
				1.36814 0.380309 0.0 
				0.650788 0.614113 0.0 
				0.952927 0.49295 0.0 
				0.305965 0.239796 0.0 
				0.610308 0.325807 0.0 
				0.305964 -0.239794 0.0 
				0.482104 8.77308e-07 0.0 
				0.650787 -0.614111 0.0 
				0.610307 -0.325805 0.0 
				1.22365 -0.696388 0.0 
				0.952926 -0.492948 0.0 
				1.76432 -0.370901 0.0 
				1.36813 -0.380308 0.0 
				1.81814 0.226999 0.0 
				1.60247 0.000508888 0.0 
				1.3121 0.598719 0.0 
				1.43455 0.376153 0.0 
				0.716908 0.557104 0.0 
				1.0237 0.47013 0.0 
				0.320648 0.214446 0.0 
				0.634442 0.308882 0.0 
				0.833371 -0.0413772 0.0 
				0.714558 -6.70207e-07 0.0 
				0.937573 -0.0816155 0.0 
				0.822804 -0.110165 0.0 
				1.02493 -0.0895416 0.0 
				0.968069 -0.164421 0.0 
				1.10139 -0.0298688 0.0 
				1.11805 -0.131177 0.0 
				1.10204 0.0643772 0.0 
				1.19953 0.013141 0.0 
				1.02649 0.116323 0.0 
				1.12529 0.164004 0.0 
				0.939502 0.0999087 0.0 
				0.965661 0.202222 0.0 
				0.888455 0.0380075 0.0 
				0.835359 0.128729 0.0 
				0.888455 -0.0380065 0.0 
				0.788461 6.31926e-07 0.0 
				0.939502 -0.0999078 0.0 
				0.835358 -0.128727 0.0 
				1.02648 -0.116322 0.0 
				0.96566 -0.202221 0.0 
				1.10203 -0.0643769 0.0 
				1.12529 -0.164003 0.0 
				1.10139 0.0298684 0.0 
				1.19953 -0.013141 0.0 
				1.02493 0.0895407 0.0 
				1.11805 0.131176 0.0 
				0.937572 0.0816145 0.0 
				0.968068 0.16442 0.0 
				0.833371 0.0413762 0.0 
				0.822804 0.110163 0.0 
				0.935097 -0.0138194 0.0 
				0.944129 -3.35132e-07 0.0 
				0.990246 -0.0196509 0.0 
				0.98167 -0.0105784 0.0 
				1.01308 -0.0194111 0.0 
				1.00342 -0.00878181 0.0 
				1.0303 -0.00130663 0.0 
				1.01411 -0.00331202 0.0 
				1.02568 0.0215683 0.0 
				1.01605 0.00755765 0.0 
				1.00425 0.0318451 0.0 
				1.00765 0.0154099 0.0 
				0.98245 0.0256445 0.0 
				0.995575 0.0156116 0.0 
				0.970327 0.00950904 0.0 
				0.986626 0.00930158 0.0 
				0.970327 -0.00950853 0.0 
				0.983512 1.79278e-07 0.0 
				0.982449 -0.0256441 0.0 
				0.986626 -0.00930125 0.0 
				1.00425 -0.0318448 0.0 
				0.995575 -0.0156113 0.0 
				1.02568 -0.0215682 0.0 
				1.00765 -0.0154098 0.0 
				1.0303 0.00130644 0.0 
				1.01605 -0.00755773 0.0 
				1.01308 0.0194106 0.0 
				1.01411 0.00331172 0.0 
				0.990246 0.0196502 0.0 
				1.00342 0.00878133 0.0 
				0.935097 0.0138186 0.0 
				0.98167 0.0105779 0.0 
				0.992704 -0.00306466 0.0 
				0.976547 -9.04565e-08 0.0 
				1.00206 -0.00162843 0.0 
				0.998025 -0.00436301 0.0 
				1.00296 -0.000538985 0.0 
				1.00414 -0.001842 0.0 
				1.00252 0.000714605 0.0 
				1.00503 0.000247066 0.0 
				1.00134 0.00176075 0.0 
				1.00404 0.00253049 0.0 
				0.999733 0.00213299 0.0 
				1.00147 0.0039414 0.0 
				0.998345 0.0016397 0.0 
				0.998508 0.00376563 0.0 
				0.997601 0.000600842 0.0 
				0.99642 0.00220192 0.0 
				0.997601 -0.000600767 0.0 
				0.995704 6.61779e-08 0.0 
				0.998345 -0.00163964 0.0 
				0.99642 -0.0022018 0.0 
				0.999733 -0.00213297 0.0 
				0.998508 -0.00376554 0.0 
				1.00133 -0.00176078 0.0 
				1.00147 -0.00394139 0.0 
				1.00252 -0.000714697 0.0 
				1.00404 -0.00253056 0.0 
				1.00296 0.000538858 0.0 
				1.00503 -0.000247215 0.0 
				1.00206 0.0016283 0.0 
				1.00414 0.00184181 0.0 
				0.992704 0.00306455 0.0 
				0.998025 0.00436283 0.0 
			</DataArray>
		</CellData>
		<Points>
		<DataArray type="Float64" NumberOfComponents="3" Format="ascii">
			0.5 0 0.0 
			0.46194 0.191342 0.0 
			0.353553 0.353553 0.0 
			0.191342 0.46194 0.0 
			-2.18557e-08 0.5 0.0 
			-0.191342 0.46194 0.0 
			-0.353553 0.353553 0.0 
			-0.46194 0.191342 0.0 
			-0.5 -4.37114e-08 0.0 
			-0.46194 -0.191342 0.0 
			-0.353553 -0.353553 0.0 
			-0.191342 -0.46194 0.0 
			6.55671e-08 -0.5 0.0 
			0.191342 -0.46194 0.0 
			0.353553 -0.353553 0.0 
			0.46194 -0.191342 0.0 
			0.884503 0.175939 0.0 
			0.749846 0.501031 0.0 
			0.501031 0.749846 0.0 
			0.175939 0.884503 0.0 
			-0.175939 0.884503 0.0 
			-0.501031 0.749846 0.0 
			-0.749846 0.501031 0.0 
			-0.884503 0.175939 0.0 
			-0.884503 -0.175939 0.0 
			-0.749846 -0.501031 0.0 
			-0.501031 -0.749846 0.0 
			-0.175939 -0.884503 0.0 
			0.175939 -0.884503 0.0 
			0.501031 -0.749846 0.0 
			0.749846 -0.501031 0.0 
			0.884503 -0.175938 0.0 
			2.20148 0 0.0 
			2.0339 0.842468 0.0 
			1.55668 1.55668 0.0 
			0.842468 2.0339 0.0 
			-9.62295e-08 2.20148 0.0 
			-0.842468 2.0339 0.0 
			-1.55668 1.55668 0.0 
			-2.0339 0.842468 0.0 
			-2.20148 -1.92459e-07 0.0 
			-2.0339 -0.842468 0.0 
			-1.55668 -1.55668 0.0 
			-0.842468 -2.0339 0.0 
			2.88689e-07 -2.20148 0.0 
			0.842468 -2.0339 0.0 
			1.55668 -1.55668 0.0 
			2.0339 -0.842468 0.0 
			6.28184 1.24954 0.0 
			5.32549 3.55838 0.0 
			3.55838 5.32549 0.0 
			1.24954 6.28184 0.0 
			-1.24954 6.28184 0.0 
			-3.55838 5.32549 0.0 
			-5.32549 3.55838 0.0 
			-6.28184 1.24954 0.0 
			-6.28184 -1.24954 0.0 
			-5.32549 -3.55838 0.0 
			-3.55838 -5.32549 0.0 
			-1.24954 -6.28184 0.0 
			1.24954 -6.28184 0.0 
			3.55838 -5.32549 0.0 
			5.32549 -3.55838 0.0 
			6.28184 -1.24953 0.0 
			20.0001 0 0.0 
			18.4777 7.6537 0.0 
			14.1422 14.1422 0.0 
			7.6537 18.4777 0.0 
			-8.74231e-07 20.0001 0.0 
			-7.6537 18.4777 0.0 
			-14.1422 14.1422 0.0 
			-18.4777 7.65369 0.0 
			-20.0001 -1.74846e-06 0.0 
			-18.4777 -7.6537 0.0 
			-14.1422 -14.1422 0.0 
			-7.65369 -18.4777 0.0 
			2.62269e-06 -20.0001 0.0 
			7.6537 -18.4777 0.0 
			14.1422 -14.1422 0.0 
			18.4777 -7.65369 0.0 
		</DataArray>
		</Points>
		<Cells>
			<DataArray type="UInt32" Name="connectivity" Format="ascii">
				0 16 1 
				0 31 16 
				1 17 2 
				1 16 17 
				2 18 3 
				2 17 18 
				3 19 4 
				3 18 19 
				4 20 5 
				4 19 20 
				5 21 6 
				5 20 21 
				6 22 7 
				6 21 22 
				7 23 8 
				7 22 23 
				8 24 9 
				8 23 24 
				9 25 10 
				9 24 25 
				10 26 11 
				10 25 26 
				11 27 12 
				11 26 27 
				12 28 13 
				12 27 28 
				13 29 14 
				13 28 29 
				14 30 15 
				14 29 30 
				15 31 0 
				15 30 31 
				16 32 33 
				16 31 32 
				17 33 34 
				17 16 33 
				18 34 35 
				18 17 34 
				19 35 36 
				19 18 35 
				20 36 37 
				20 19 36 
				21 37 38 
				21 20 37 
				22 38 39 
				22 21 38 
				23 39 40 
				23 22 39 
				24 40 41 
				24 23 40 
				25 41 42 
				25 24 41 
				26 42 43 
				26 25 42 
				27 43 44 
				27 26 43 
				28 44 45 
				28 27 44 
				29 45 46 
				29 28 45 
				30 46 47 
				30 29 46 
				31 47 32 
				31 30 47 
				32 48 33 
				32 63 48 
				33 49 34 
				33 48 49 
				34 50 35 
				34 49 50 
				35 51 36 
				35 50 51 
				36 52 37 
				36 51 52 
				37 53 38 
				37 52 53 
				38 54 39 
				38 53 54 
				39 55 40 
				39 54 55 
				40 56 41 
				40 55 56 
				41 57 42 
				41 56 57 
				42 58 43 
				42 57 58 
				43 59 44 
				43 58 59 
				44 60 45 
				44 59 60 
				45 61 46 
				45 60 61 
				46 62 47 
				46 61 62 
				47 63 32 
				47 62 63 
				48 64 65 
				48 63 64 
				49 65 66 
				49 48 65 
				50 66 67 
				50 49 66 
				51 67 68 
				51 50 67 
				52 68 69 
				52 51 68 
				53 69 70 
				53 52 69 
				54 70 71 
				54 53 70 
				55 71 72 
				55 54 71 
				56 72 73 
				56 55 72 
				57 73 74 
				57 56 73 
				58 74 75 
				58 57 74 
				59 75 76 
				59 58 75 
				60 76 77 
				60 59 76 
				61 77 78 
				61 60 77 
				62 78 79 
				62 61 78 
				63 79 64 
				63 62 79 
			</DataArray>
			<DataArray type="UInt32" Name="offsets" Format="ascii">
				3
				6
				9
				12
				15
				18
				21
				24
				27
				30
				33
				36
				39
				42
				45
				48
				51
				54
				57
				60
				63
				66
				69
				72
				75
				78
				81
				84
				87
				90
				93
				96
				99
				102
				105
				108
				111
				114
				117
				120
				123
				126
				129
				132
				135
				138
				141
				144
				147
				150
				153
				156
				159
				162
				165
				168
				171
				174
				177
				180
				183
				186
				189
				192
				195
				198
				201
				204
				207
				210
				213
				216
				219
				222
				225
				228
				231
				234
				237
				240
				243
				246
				249
				252
				255
				258
				261
				264
				267
				270
				273
				276
				279
				282
				285
				288
				291
				294
				297
				300
				303
				306
				309
				312
				315
				318
				321
				324
				327
				330
				333
				336
				339
				342
				345
				348
				351
				354
				357
				360
				363
				366
				369
				372
				375
				378
				381
				384
			</DataArray>
			<DataArray type="Int32" Name="types" Format="ascii">
				5
				5
				5
				5
				5
				5
				5
				5
				5
				5
				5
				5
				5
				5
				5
				5
				5
				5
				5
				5
				5
				5
				5
				5
				5
				5
				5
				5
				5
				5
				5
				5
				5
				5
				5
				5
				5
				5
				5
				5
				5
				5
				5
				5
				5
				5
				5
				5
				5
				5
				5
				5
				5
				5
				5
				5
				5
				5
				5
				5
				5
				5
				5
				5
				5
				5
				5
				5
				5
				5
				5
				5
				5
				5
				5
				5
				5
				5
				5
				5
				5
				5
				5
				5
				5
				5
				5
				5
				5
				5
				5
				5
				5
				5
				5
				5
				5
				5
				5
				5
				5
				5
				5
				5
				5
				5
				5
				5
				5
				5
				5
				5
				5
				5
				5
				5
				5
				5
				5
				5
				5
				5
				5
				5
				5
				5
				5
				5
			</DataArray>
		</Cells>
	</Piece>
</UnstructuredGrid>
</VTKFile>