<VTKFile type="UnstructuredGrid" version="0.1" byte_order="LittleEndian">
<UnstructuredGrid>
	<Piece NumberOfPoints="1088" NumberOfCells="2048">
		<CellData Scalars="density" Vectors="velocity">
			<DataArray type="Float64" Name="density" Format="ascii">
				0.973704
				0.990481
				0.985714
				0.997745
				0.998418
				1.00828
				1.01657
				1.02205
				1.04486
				1.04436
				1.08897
				1.08256
				1.17031
				1.15153
				1.11504
				1.21883
				1.04519
				1.10474
				0.994634
				1.03919
				0.952514
				0.989206
				0.916803
				0.948877
				0.886818
				0.91566
				0.862492
				0.888629
				0.844111
				0.867596
				0.83201
				0.852692
				0.826443
				0.844092
				0.827379
				0.841823
				0.834367
				0.845674
				0.846614
				0.855056
				0.86335
				0.86903
				0.883721
				0.886732
				0.906916
				0.907297
				0.932234
				0.929932
				0.959063
				0.953945
				0.986899
				0.978753
				1.01522
				1.00384
				1.04336
				1.02867
				1.07127
				1.05264
				1.09343
				1.07441
				1.09692
				1.09087
				1.08802
				1.08516
				1.06199
				1.06776
				1.03334
				1.04462
				1.00239
				1.01871
				0.96981
				0.990706
				0.935801
				0.960896
				0.90054
				0.92945
				0.864186
				0.896534
				0.826942
				0.862342
				0.789081
				0.827137
				0.750911
				0.791259
				0.712898
				0.755168
				0.675589
				0.71945
				0.63971
				0.684858
				0.606364
				0.652488
				0.577192
				0.623772
				0.555477
				0.600775
				0.547773
				0.586987
				0.56042
				0.587597
				0.585225
				0.603953
				0.614958
				0.62842
				0.647792
				0.65717
				0.682508
				0.688839
				0.718111
				0.722347
				0.753768
				0.756802
				0.788678
				0.791369
				0.822052
				0.825208
				0.85319
				0.857518
				0.881448
				0.887546
				0.906339
				0.914649
				0.927591
				0.938338
				0.945253
				0.958295
				0.970671
				0.973807
				1.09515
				1.08768
				1.10036
				1.0786
				1.08663
				1.07118
				1.07083
				1.06187
				1.05112
				1.05203
				1.09299
				1.05803
				1.18468
				1.15324
				1.08878
				1.17533
				1.0484
				1.07071
				1.02141
				1.03884
				0.999749
				1.01162
				0.981246
				0.987368
				0.965279
				0.966011
				0.952021
				0.947906
				0.94208
				0.933608
				0.936159
				0.923768
				0.934755
				0.918931
				0.93796
				0.919325
				0.945841
				0.924782
				0.957419
				0.934769
				0.971834
				0.948435
				0.98813
				0.964803
				1.00536
				0.982855
				1.02264
				1.00162
				1.03918
				1.02023
				1.05429
				1.03792
				1.06739
				1.05403
				1.07788
				1.06801
				1.08445
				1.07916
				1.0843
				1.08579
				1.08776
				1.08614
				1.08419
				1.08435
				1.08348
				1.08389
				1.07611
				1.07654
				1.06443
				1.06433
				1.04885
				1.04831
				1.02968
				1.02867
				1.00718
				1.0056
				0.981632
				0.979316
				0.953398
				0.950126
				0.922924
				0.918428
				0.890769
				0.884725
				0.857602
				0.849633
				0.824242
				0.813897
				0.791722
				0.778416
				0.761266
				0.744254
				0.735099
				0.713013
				0.715692
				0.687327
				0.706737
				0.671066
				0.711343
				0.669666
				0.726878
				0.684484
				0.749133
				0.708295
				0.775198
				0.736811
				0.803165
				0.768003
				0.831851
				0.800541
				0.860703
				0.833701
				0.889749
				0.867236
				0.919486
				0.901255
				0.950605
				0.936021
				0.983552
				0.971642
				1.01787
				1.00762
				1.05147
				1.04238
				1.08054
				1.0729
				1.10212
				1.09312
				1.08571
				1.0395
				1.19194
				1.09815
				1.09621
				1.11366
				1.07857
				1.0693
				1.04482
				1.05632
				1.07407
				1.06308
				1.1111
				1.11002
				1.03084
				1.03089
				1.00757
				1.00966
				0.99875
				1.0057
				0.994718
				1.00576
				0.991342
				1.00501
				0.987302
				1.00234
				0.982606
				0.998041
				0.977892
				0.992875
				0.974044
				0.987762
				0.971935
				0.983598
				0.972196
				0.981128
				0.975205
				0.980901
				0.981233
				0.983259
				0.989771
				0.988127
				1.00018
				0.995018
				1.01174
				1.00333
				1.02378
				1.01244
				1.03563
				1.02173
				1.04676
				1.03066
				1.05674
				1.03885
				1.0653
				1.04606
				1.072
				1.05239
				1.07364
				1.05815
				1.07569
				1.06229
				1.07407
				1.06193
				1.07215
				1.05731
				1.0652
				1.05222
				1.0553
				1.04497
				1.04237
				1.03537
				1.02669
				1.02341
				1.00846
				1.00913
				0.987929
				0.992706
				0.965405
				0.974373
				0.941276
				0.954463
				0.916001
				0.933375
				0.890136
				0.911587
				0.864371
				0.889664
				0.839599
				0.868307
				0.817067
				0.848427
				0.798241
				0.83118
				0.785544
				0.818121
				0.781648
				0.811372
				0.787593
				0.812385
				0.800784
				0.820493
				0.817581
				0.833554
				0.835286
				0.848951
				0.852246
				0.864631
				0.867553
				0.879279
				0.880886
				0.892158
				0.892452
				0.903
				0.902991
				0.911998
				0.913776
				0.919878
				0.926561
				0.928
				0.943331
				0.938349
				0.965759
				0.95323
				0.993941
				0.974398
				1.03954
				1.00472
				1.01914
				1.01731
				1.07417
				1.07095
				0.977736
				1.05556
				1.07906
				1.13571
				1.06506
				1.07685
				1.07098
				1.06689
				1.01097
				1.06706
				1.0049
				1.01245
				1.00737
				1.00611
				1.00835
				1.00633
				1.00569
				1.00577
				1.00051
				1.00235
				0.994399
				0.996794
				0.988646
				0.99047
				0.984174
				0.984633
				0.981588
				0.98025
				0.981224
				0.977984
				0.983267
				0.978201
				0.987453
				0.980912
				0.993267
				0.985842
				1.0004
				0.992549
				1.00841
				1.00059
				1.01683
				1.00946
				1.02522
				1.01863
				1.03316
				1.02762
				1.04031
				1.03602
				1.0464
				1.0435
				1.05125
				1.04987
				1.0546
				1.05502
				1.05696
				1.0586
				1.05624
				1.05909
				1.05505
				1.05774
				1.05309
				1.05639
				1.04976
				1.05325
				1.04338
				1.04711
				1.03477
				1.03854
				1.02413
				1.02783
				1.01154
				1.01504
				0.997129
				1.00027
				0.981053
				0.983636
				0.963539
				0.965357
				0.944886
				0.945716
				0.925498
				0.925094
				0.905918
				0.903998
				0.886883
				0.883101
				0.869395
				0.863319
				0.854727
				0.845883
				0.844839
				0.832528
				0.84124
				0.825204
				0.843923
				0.825201
				0.85195
				0.832138
				0.863756
				0.844284
				0.877824
				0.85953
				0.892924
				0.876153
				0.908081
				0.892884
				0.922453
				0.908732
				0.935246
				0.922871
				0.945746
				0.934657
				0.953537
				0.943819
				0.95892
				0.950784
				0.9634
				0.957004
				0.969937
				0.965054
				0.982336
				0.977961
				1.01078
				0.999607
				0.997729
				0.989486
				1.05136
				1.00477
				1.04983
				1.04631
				1.06297
				1.06963
				1.04617
				1.05039
				1.03423
				1.03865
				0.996505
				0.995846
				0.995861
				0.995742
				0.998604
				0.999617
				1.00015
				1.00194
				1.00026
				1.00285
				0.999629
				1.00309
				0.998733
				1.00298
				0.997822
				1.00257
				0.997082
				1.00194
				0.99672
				1.00124
				0.996969
				1.0007
				0.997991
				1.00059
				1.00003
				1.00118
				1.00323
				1.00268
				1.00741
				1.00512
				1.01232
				1.00831
				1.01765
				1.01203
				1.02309
				1.016
				1.02832
				1.01995
				1.03312
				1.02366
				1.03731
				1.02695
				1.04085
				1.02978
				1.04393
				1.03228
				1.04671
				1.03496
				1.04604
				1.03726
				1.04501
				1.03668
				1.04313
				1.03449
				1.03963
				1.03094
				1.03419
				1.02664
				1.02739
				1.02143
				1.01917
				1.01512
				1.00961
				1.00768
				0.998793
				0.999132
				0.98686
				0.989575
				0.974024
				0.979161
				0.96058
				0.968127
				0.946925
				0.956793
				0.933583
				0.94559
				0.921235
				0.935067
				0.910726
				0.925909
				0.903048
				0.918905
				0.898795
				0.914683
				0.898044
				0.913496
				0.900545
				0.915076
				0.905509
				0.918867
				0.911973
				0.92416
				0.919079
				0.930238
				0.926197
				0.93648
				0.932918
				0.942421
				0.938989
				0.947771
				0.944222
				0.952388
				0.948386
				0.956201
				0.951172
				0.959094
				0.952358
				0.960811
				0.952335
				0.961081
				0.953031
				0.96021
				0.958404
				0.96014
				0.986297
				0.966849
				0.98358
				0.982435
				1.00878
				0.996766
				1.06442
				1.02525
				1.04434
				1.06582
				1.02175
				1.04169
				0.994254
				1.01847
				0.997316
				0.994777
				1.00005
				0.997444
				1.00143
				0.999868
				1.00184
				1.00108
				1.00164
				1.00131
				1.00096
				1.00091
				1.00005
				1.00008
				0.999215
				0.999087
				0.998762
				0.998234
				0.998937
				0.997836
				0.999877
				0.998142
				1.00168
				0.999304
				1.0041
				1.0013
				1.00702
				1.00402
				1.01033
				1.00731
				1.01387
				1.01102
				1.01743
				1.01494
				1.02085
				1.01886
				1.02396
				1.02257
				1.0266
				1.02591
				1.02867
				1.02873
				1.03013
				1.03097
				1.03094
				1.03265
				1.03183
				1.03377
				1.03129
				1.03427
				1.02992
				1.03288
				1.02801
				1.03139
				1.02619
				1.02948
				1.02316
				1.02638
				1.01898
				1.02201
				1.01376
				1.0166
				1.00757
				1.01017
				1.00047
				1.00275
				0.992525
				0.994403
				0.983874
				0.985234
				0.974702
				0.975416
				0.965273
				0.965196
				0.955934
				0.954913
				0.947117
				0.944999
				0.939314
				0.935981
				0.933021
				0.928439
				0.92862
				0.922934
				0.927085
				0.920138
				0.928071
				0.920199
				0.931351
				0.922935
				0.936497
				0.927897
				0.942969
				0.934465
				0.95018
				0.941954
				0.957534
				0.949693
				0.964462
				0.957073
				0.970453
				0.963584
				0.9751
				0.968829
				0.978108
				0.972522
				0.979254
				0.97443
				0.978325
				0.974352
				0.975353
				0.972349
				0.971598
				0.969503
				0.973531
				0.969597
				0.981775
				0.972337
				0.998187
				0.990164
				1.06377
				1.05854
				1.02933
				1.0343
				1.00678
				1.00992
				0.992669
				0.993155
				0.99671
				0.997448
				0.999079
				0.999774
				1.00041
				1.00098
				1.00121
				1.00179
				1.00172
				1.00239
				1.00207
				1.00284
				1.00235
				1.0032
				1.00265
				1.00352
				1.00305
				1.00382
				1.00363
				1.00416
				1.00444
				1.00459
				1.00553
				1.00519
				1.00694
				1.00601
				1.00869
				1.0071
				1.01068
				1.00843
				1.01282
				1.00992
				1.01499
				1.01147
				1.01707
				1.013
				1.01897
				1.01441
				1.02058
				1.01562
				1.02186
				1.01658
				1.02279
				1.01726
				1.02356
				1.01775
				1.02464
				1.01839
				1.02406
				1.01917
				1.02287
				1.01848
				1.02144
				1.01727
				1.01943
				1.01487
				1.01669
				1.01252
				1.01332
				1.00974
				1.00936
				1.00657
				1.00482
				1.00297
				0.999735
				0.998922
				0.994173
				0.994464
				0.988246
				0.989677
				0.982114
				0.984683
				0.975997
				0.979656
				0.970166
				0.974817
				0.96494
				0.970427
				0.960653
				0.966771
				0.957615
				0.964122
				0.956078
				0.962688
				0.95561
				0.96232
				0.956256
				0.962917
				0.957848
				0.964299
				0.960154
				0.966278
				0.962942
				0.968653
				0.965996
				0.971249
				0.969128
				0.973926
				0.972151
				0.976571
				0.974852
				0.979072
				0.976969
				0.981272
				0.978191
				0.982934
				0.978149
				0.983735
				0.976414
				0.983255
				0.972674
				0.980953
				0.967647
				0.976303
				0.971707
				0.970839
				0.975611
				0.973987
				1.02882
				0.979518
				1.03324
				1.05116
				1.00483
				1.03081
				0.994739
				1.00229
				0.998939
				0.994934
				1.00053
				0.998888
				1.00139
				1.00045
				1.00192
				1.00131
				1.00227
				1.00183
				1.00249
				1.00216
				1.00266
				1.00237
				1.00285
				1.00254
				1.00314
				1.00275
				1.00358
				1.00308
				1.00424
				1.00359
				1.00512
				1.00433
				1.0062
				1.00531
				1.00743
				1.00651
				1.00877
				1.00788
				1.01015
				1.00937
				1.01152
				1.01091
				1.01281
				1.01243
				1.01395
				1.01384
				1.01488
				1.01507
				1.01556
				1.01608
				1.01596
				1.01681
				1.01605
				1.01724
				1.01587
				1.01738
				1.01567
				1.01732
				1.0151
				1.01723
				1.01406
				1.0161
				1.01274
				1.01471
				1.01126
				1.01309
				1.00973
				1.0116
				1.00767
				1.00943
				1.00519
				1.0068
				1.00232
				1.00376
				0.999078
				1.00033
				0.995501
				0.996516
				0.991649
				0.992386
				0.98761
				0.988016
				0.983501
				0.983521
				0.979469
				0.979053
				0.975681
				0.974794
				0.972312
				0.970945
				0.969523
				0.967705
				0.967417
				0.965248
				0.966402
				0.963835
				0.966523
				0.963573
				0.967683
				0.964456
				0.969763
				0.966356
				0.972574
				0.969074
				0.975883
				0.972359
				0.97943
				0.975936
				0.982953
				0.979537
				0.986204
				0.982909
				0.988947
				0.985819
				0.99094
				0.988034
				0.99189
				0.989283
				0.991383
				0.989206
				0.988742
				0.987244
				0.982883
				0.982594
				0.974334
				0.974914
				0.968403
				0.973151
				1.02925
				0.995039
				1.02421
				1.02594
				0.998257
				1.00056
				0.994746
				0.994697
				0.998827
				0.999087
				1.00039
				1.00052
				1.00134
				1.00137
				1.00199
				1.00197
				1.00246
				1.00241
				1.00284
				1.00274
				1.00316
				1.00302
				1.00347
				1.00327
				1.00381
				1.00352
				1.0042
				1.0038
				1.00468
				1.00412
				1.00525
				1.00451
				1.00593
				1.00497
				1.00669
				1.00551
				1.00751
				1.0061
				1.00835
				1.00672
				1.00917
				1.00733
				1.00992
				1.0079
				1.01058
				1.00839
				1.0111
				1.00877
				1.01145
				1.00902
				1.01164
				1.00913
				1.01165
				1.00909
				1.01154
				1.00893
				1.01159
				1.00876
				1.01112
				1.00884
				1.01024
				1.00824
				1.00922
				1.00742
				1.00803
				1.00633
				1.00655
				1.00476
				1.00489
				1.00331
				1.00302
				1.00175
				1.00095
				1.00005
				0.998678
				0.998208
				0.996238
				0.996226
				0.993672
				0.994135
				0.991047
				0.991985
				0.98845
				0.989844
				0.985988
				0.987797
				0.983779
				0.985943
				0.981945
				0.984388
				0.980595
				0.983231
				0.979833
				0.982559
				0.979503
				0.982308
				0.979566
				0.982438
				0.980035
				0.982881
				0.980855
				0.983593
				0.981971
				0.984522
				0.983326
				0.985627
				0.984859
				0.98688
				0.9865
				0.988254
				0.988146
				0.989715
				0.989646
				0.991193
				0.990775
				0.992559
				0.991199
				0.99358
				0.99044
				0.99387
				0.987815
				0.992818
				0.982294
				0.989333
				0.977858
				0.982817
				0.971229
				0.972531
				1.01698
				0.969845
				0.998855
				1.02758
				0.994909
				0.997374
				0.998929
				0.995302
				1.0002
				0.999227
				1.00098
				1.00042
				1.00149
				1.00117
				1.00185
				1.00167
				1.00215
				1.00204
				1.00242
				1.00234
				1.00271
				1.00261
				1.00303
				1.00291
				1.00339
				1.00324
				1.00381
				1.00363
				1.00428
				1.00408
				1.00479
				1.00459
				1.0053
				1.00514
				1.00584
				1.00572
				1.00637
				1.00632
				1.00688
				1.00692
				1.00734
				1.00748
				1.00771
				1.00797
				1.00799
				1.00838
				1.00815
				1.00868
				1.00819
				1.00885
				1.00809
				1.00888
				1.00786
				1.00878
				1.00751
				1.00854
				1.00702
				1.00817
				1.00661
				1.00789
				1.00593
				1.00706
				1.00507
				1.0061
				1.00407
				1.00517
				1.00328
				1.0041
				1.00226
				1.00303
				1.00108
				1.00176
				0.999766
				1.00035
				0.998317
				0.998807
				0.996746
				0.997127
				0.995075
				0.995333
				0.99334
				0.993455
				0.991583
				0.991538
				0.989859
				0.989638
				0.988229
				0.987823
				0.986755
				0.986164
				0.985494
				0.984735
				0.984483
				0.983595
				0.983872
				0.982855
				0.983767
				0.982581
				0.984114
				0.982796
				0.984881
				0.983465
				0.986007
				0.984522
				0.987406
				0.985882
				0.988981
				0.987446
				0.990636
				0.989116
				0.992282
				0.9908
				0.993838
				0.992413
				0.995208
				0.993856
				0.996231
				0.994976
				0.996568
				0.995483
				0.995484
				0.994821
				0.991409
				0.991751
				0.980912
				0.986247
				0.971947
				0.97791
				1.0201
				1.0076
				0.996782
				1.0004
				0.996228
				0.995811
				0.999533
				0.999544
				1.00042
				1.00037
				1.00098
				1.00085
				1.00135
				1.00116
				1.00162
				1.00137
				1.00183
				1.00153
				1.00203
				1.00167
				1.00221
				1.0018
				1.00241
				1.00194
				1.00263
				1.0021
				1.00288
				1.00228
				1.00317
				1.0025
				1.00351
				1.00275
				1.00388
				1.00304
				1.00426
				1.00335
				1.00462
				1.00365
				1.00495
				1.00393
				1.00523
				1.00416
				1.00546
				1.00435
				1.00562
				1.00448
				1.00569
				1.00454
				1.00569
				1.00453
				1.0056
				1.00444
				1.00544
				1.00428
				1.00523
				1.00406
				1.00497
				1.00383
				1.00469
				1.00365
				1.00413
				1.00331
				1.00347
				1.00282
				1.00273
				1.00223
				1.00204
				1.00142
				1.00123
				1.00068
				1.00037
				0.99994
				0.999443
				0.999167
				0.998446
				0.998344
				0.997388
				0.997471
				0.996287
				0.996561
				0.995169
				0.995633
				0.994069
				0.994714
				0.993025
				0.993836
				0.992084
				0.993038
				0.991291
				0.99236
				0.990688
				0.991841
				0.990318
				0.991517
				0.990129
				0.991367
				0.990073
				0.991366
				0.990184
				0.991487
				0.99045
				0.99172
				0.990857
				0.99205
				0.991395
				0.99247
				0.992052
				0.992976
				0.992811
				0.993571
				0.993649
				0.994254
				0.994529
				0.995019
				0.995383
				0.995843
				0.996085
				0.996668
				0.996362
				0.997356
				0.995656
				0.997556
				0.992594
				0.996221
				0.986469
				0.991671
				0.988269
				0.976483
				1.0018
				0.996843
				0.996022
				1.00398
				0.999213
				0.996163
				0.999975
				0.999518
				1.00035
				1.00016
				1.00054
				1.00054
				1.00068
				1.00075
				1.00081
				1.0009
				1.00095
				1.00105
				1.00113
				1.00121
				1.00134
				1.00139
				1.00159
				1.00161
				1.00186
				1.00186
				1.00215
				1.00214
				1.00244
				1.00243
				1.00271
				1.00273
				1.00296
				1.00302
				1.0032
				1.0033
				1.00342
				1.00356
				1.00361
				1.0038
				1.00375
				1.00399
				1.00385
				1.00414
				1.00388
				1.00424
				1.00386
				1.00427
				1.00378
				1.00424
				1.00363
				1.00415
				1.00343
				1.00399
				1.00317
				1.00378
				1.00289
				1.00354
				1.0026
				1.00326
				1.00218
				1.00278
				1.00172
				1.00222
				1.00122
				1.00166
				1.00076
				1.00107
				1.00028
				1.00054
				0.999753
				0.999968
				0.999169
				0.999343
				0.998533
				0.998663
				0.997852
				0.997934
				0.997137
				0.997165
				0.996401
				0.996368
				0.995659
				0.995559
				0.994931
				0.99476
				0.99424
				0.993995
				0.993606
				0.993288
				0.993049
				0.992667
				0.992581
				0.992151
				0.992259
				0.991787
				0.992157
				0.991608
				0.992242
				0.991631
				0.992503
				0.991844
				0.992921
				0.992224
				0.993463
				0.992743
				0.994096
				0.993366
				0.994785
				0.994059
				0.995502
				0.994792
				0.99623
				0.995548
				0.996958
				0.996309
				0.997672
				0.997054
				0.998295
				0.997718
				0.998513
				0.998072
				0.997182
				0.997359
				0.987823
				0.996093
				0.990134
				0.986611
				1.00028
				0.998308
				0.996352
				0.996282
				0.99934
				0.99878
				0.999727
				0.9996
				0.999954
				0.999782
				1.00007
				0.999868
				1.00016
				0.999924
				1.00025
				0.999976
				1.00033
				1.00003
				1.00043
				1.00008
				1.00053
				1.00014
				1.00064
				1.00021
				1.00077
				1.0003
				1.00093
				1.00041
				1.00111
				1.00056
				1.00133
				1.00074
				1.00156
				1.00095
				1.00178
				1.00116
				1.00198
				1.00135
				1.00215
				1.00152
				1.00227
				1.00165
				1.00236
				1.00175
				1.00241
				1.0018
				1.00241
				1.00182
				1.00237
				1.00179
				1.00228
				1.00173
				1.00217
				1.00163
				1.00203
				1.0015
				1.0019
				1.00136
				1.00173
				1.00126
				1.00142
				1.00109
				1.00107
				1.00084
				1.0007
				1.00055
				1.00035
				1.00018
				1.00002
				0.99987
				0.999661
				0.999567
				0.999273
				0.999246
				0.998857
				0.998904
				0.99842
				0.998544
				0.99797
				0.998173
				0.997518
				0.997799
				0.997076
				0.99743
				0.99666
				0.997082
				0.996287
				0.996768
				0.995975
				0.996503
				0.995737
				0.996302
				0.99559
				0.996177
				0.995508
				0.996116
				0.995458
				0.996105
				0.99546
				0.996125
				0.995516
				0.996173
				0.995626
				0.996249
				0.995791
				0.996356
				0.996012
				0.996499
				0.996287
				0.996685
				0.99661
				0.996917
				0.996975
				0.997197
				0.997371
				0.997523
				0.997783
				0.997892
				0.998163
				0.998289
				0.998347
				0.998655
				0.997651
				0.998444
				0.989743
				0.995737
				0.993842
				0.986042
				0.997972
				0.995794
				0.998934
				0.999998
				0.999402
				0.998993
				0.999449
				0.999526
				0.999422
				0.999568
				0.999398
				0.999571
				0.999394
				0.999573
				0.999415
				0.999592
				0.999465
				0.999632
				0.999544
				0.999696
				0.999651
				0.999785
				0.999785
				0.999899
				0.999948
				1.00004
				1.00014
				1.0002
				1.00036
				1.00039
				1.00058
				1.0006
				1.00077
				1.00081
				1.00095
				1.001
				1.0011
				1.00118
				1.00123
				1.00133
				1.00131
				1.00145
				1.00137
				1.00154
				1.00139
				1.00159
				1.00137
				1.0016
				1.00132
				1.00158
				1.00124
				1.00153
				1.00114
				1.00145
				1.00101
				1.00134
				1.00087
				1.00121
				1.00076
				1.00111
				1.00057
				1.00089
				1.00037
				1.0006
				1.00016
				1.00031
				0.99998
				1.00003
				0.999801
				0.999838
				0.999595
				0.999614
				0.999367
				0.999367
				0.999123
				0.999102
				0.998866
				0.998822
				0.998599
				0.99853
				0.998327
				0.998231
				0.998057
				0.997932
				0.997795
				0.99764
				0.997548
				0.997362
				0.997323
				0.997107
				0.997123
				0.996881
				0.99695
				0.99669
				0.996833
				0.996551
				0.996798
				0.996472
				0.996805
				0.99645
				0.996855
				0.996479
				0.996949
				0.99656
				0.997081
				0.996687
				0.997244
				0.996851
				0.997429
				0.997047
				0.997632
				0.997266
				0.997852
				0.997509
				0.998095
				0.997776
				0.998373
				0.998076
				0.998699
				0.998418
				0.999055
				0.998784
				0.999012
				0.999067
				0.992588
				0.999728
				0.9952
				0.992762
				0.997073
				0.996599
				0.999014
				0.998649
				0.999159
				0.998995
				0.99905
				0.999027
				0.998957
				0.998891
				0.998889
				0.998792
				0.998852
				0.998726
				0.998844
				0.998689
				0.998855
				0.998673
				0.998879
				0.998668
				0.998909
				0.998667
				0.998942
				0.998664
				0.998978
				0.998659
				0.999029
				0.998661
				0.999123
				0.998697
				0.99939
				0.998861
				0.999717
				0.999198
				0.999969
				0.999521
				1.00018
				0.999765
				1.00034
				0.999957
				1.00046
				1.0001
				1.00054
				1.00021
				1.0006
				1.00028
				1.00062
				1.00031
				1.00062
				1.00033
				1.0006
				1.00032
				1.00056
				1.0003
				1.00051
				1.00027
				1.00046
				1.00022
				1.00044
				1.00019
				1.00031
				1.00017
				1.00017
				1.0001
				1.00003
				1.00001
				0.999928
				0.99991
				0.999832
				0.999832
				0.999722
				0.999747
				0.999603
				0.999657
				0.999475
				0.999562
				0.999344
				0.999462
				0.999211
				0.999361
				0.999082
				0.999263
				0.998964
				0.999172
				0.998865
				0.999096
				0.998793
				0.999043
				0.998758
				0.999023
				0.99877
				0.999047
				0.998852
				0.999139
				0.998927
				0.999274
				0.998866
				0.999299
				0.998791
				0.999235
				0.998716
				0.99915
				0.998653
				0.999061
				0.998604
				0.998977
				0.99857
				0.998901
				0.998553
				0.998836
				0.998552
				0.998783
				0.998571
				0.998746
				0.998617
				0.998733
				0.998702
				0.998757
				0.998842
				0.998838
				0.999063
				0.999006
				0.999384
				0.999093
				0.993466
				0.997853
				0.996145
				0.992155
				0.998789
				0.995712
				0.998721
				0.999662
				0.998584
				0.998707
				0.998398
				0.998609
				0.998293
				0.998442
				0.998254
				0.998354
				0.998263
				0.998326
				0.998301
				0.998342
				0.998352
				0.998386
				0.998403
				0.998443
				0.998442
				0.998501
				0.998454
				0.998547
				0.998426
				0.998572
				0.998339
				0.998565
				0.998165
				0.998516
				0.998698
				0.998472
				0.999215
				0.998878
				0.999542
				0.999346
				0.999763
				0.999664
				0.999909
				0.999884
				1
				1.00003
				1.00006
				1.00014
				1.0001
				1.0002
				1.00011
				1.00024
				1.00011
				1.00026
				1.0001
				1.00026
				1.00008
				1.00025
				1.00005
				1.00024
				1.00001
				1.00021
				0.999982
				1.00019
				0.999978
				1.00015
				0.999978
				1.00006
				0.999972
				0.999957
				0.999943
				0.999884
				0.999907
				0.999849
				0.999866
				0.999799
				0.999824
				0.999747
				0.999783
				0.999695
				0.999742
				0.999643
				0.999705
				0.999594
				0.999672
				0.999548
				0.999647
				0.999511
				0.999635
				0.999487
				0.999644
				0.999483
				0.999683
				0.999511
				0.999772
				0.999586
				0.999917
				0.999716
				1.00003
				0.999879
				0.999839
				0.999773
				0.999727
				0.999668
				0.999666
				0.999604
				0.999644
				0.999575
				0.999648
				0.99957
				0.999661
				0.999576
				0.999667
				0.999579
				0.999652
				0.999566
				0.999604
				0.999525
				0.999521
				0.999453
				0.999412
				0.999357
				0.999305
				0.999259
				0.99926
				0.999205
				0.999143
				0.999176
				0.995192
				0.999525
			</DataArray>
			<DataArray type="Float64" Name="mach-number" Format="ascii">
				0.350553
				0.334051
				0.335439
				0.322731
				0.316658
				0.308519
				0.28757
				0.288232
				0.242802
				0.256268
				0.175411
				0.208335
				0.0704999
				0.1486
				0.0845731
				0.130228
				0.191221
				0.16917
				0.272069
				0.242523
				0.335787
				0.308505
				0.387817
				0.364006
				0.43061
				0.410422
				0.464962
				0.448461
				0.490791
				0.478104
				0.507703
				0.49895
				0.515355
				0.510631
				0.513758
				0.513027
				0.503257
				0.506423
				0.484523
				0.491401
				0.458647
				0.46896
				0.426717
				0.440192
				0.389706
				0.406126
				0.348404
				0.367627
				0.303451
				0.325408
				0.255365
				0.280086
				0.204667
				0.23228
				0.152019
				0.182832
				0.098258
				0.13314
				0.043567
				0.0867285
				0.0127511
				0.0500304
				0.0634184
				0.0625487
				0.120372
				0.104292
				0.179089
				0.15662
				0.238481
				0.212327
				0.29806
				0.269338
				0.357603
				0.32676
				0.416976
				0.384149
				0.476176
				0.441301
				0.535297
				0.498175
				0.594472
				0.554811
				0.653856
				0.611273
				0.713479
				0.667538
				0.773213
				0.723395
				0.832513
				0.77828
				0.890191
				0.830959
				0.943551
				0.879203
				0.985384
				0.918794
				1.00026
				0.942583
				0.974051
				0.940584
				0.925719
				0.910229
				0.871277
				0.866658
				0.814639
				0.817425
				0.757851
				0.765153
				0.702122
				0.711665
				0.648257
				0.658246
				0.597016
				0.605993
				0.549208
				0.556
				0.505637
				0.509302
				0.46707
				0.466901
				0.434064
				0.42964
				0.406884
				0.398124
				0.385433
				0.3727
				0.368691
				0.353125
				0.0828982
				0.109904
				0.0835244
				0.109836
				0.0887622
				0.113671
				0.091848
				0.113607
				0.100915
				0.108232
				0.144165
				0.100351
				0.212305
				0.130148
				0.211819
				0.184969
				0.216748
				0.188926
				0.249772
				0.218509
				0.29441
				0.265678
				0.34101
				0.316463
				0.384547
				0.364933
				0.422054
				0.407807
				0.451591
				0.442898
				0.47192
				0.468688
				0.482426
				0.484298
				0.483129
				0.489523
				0.474453
				0.484788
				0.457618
				0.471043
				0.433857
				0.449569
				0.404456
				0.421684
				0.370652
				0.388646
				0.333581
				0.351574
				0.29431
				0.311438
				0.253914
				0.269088
				0.213644
				0.22534
				0.175224
				0.181142
				0.141679
				0.138024
				0.118247
				0.100935
				0.107584
				0.0698957
				0.125947
				0.0799245
				0.155934
				0.112984
				0.194676
				0.156372
				0.23874
				0.204216
				0.286124
				0.254548
				0.335638
				0.306464
				0.386592
				0.359455
				0.438529
				0.413247
				0.491068
				0.467648
				0.543817
				0.522455
				0.596313
				0.577421
				0.647947
				0.632192
				0.697882
				0.686248
				0.744913
				0.738799
				0.787192
				0.788576
				0.821466
				0.833429
				0.843524
				0.869178
				0.847002
				0.888848
				0.827122
				0.882503
				0.789179
				0.847599
				0.739638
				0.796721
				0.682399
				0.737069
				0.6201
				0.671978
				0.55473
				0.603825
				0.48797
				0.534432
				0.421389
				0.465386
				0.356521
				0.398202
				0.294905
				0.334379
				0.23808
				0.27543
				0.187527
				0.222872
				0.144611
				0.178209
				0.110872
				0.143022
				0.0893798
				0.119518
				0.029272
				0.0598374
				0.0121189
				0.0289052
				0.0286321
				0.010467
				0.0563304
				0.0241918
				0.100407
				0.0952819
				0.182748
				0.190861
				0.254395
				0.269921
				0.254863
				0.275061
				0.260097
				0.275027
				0.285791
				0.292037
				0.318599
				0.318164
				0.35201
				0.346949
				0.382966
				0.374946
				0.409783
				0.400174
				0.431238
				0.421223
				0.4463
				0.436931
				0.454176
				0.446374
				0.454474
				0.448999
				0.447402
				0.44465
				0.433343
				0.433735
				0.413158
				0.416967
				0.387899
				0.395274
				0.358666
				0.36968
				0.326533
				0.341246
				0.292538
				0.311048
				0.257734
				0.28022
				0.223259
				0.250018
				0.190427
				0.221867
				0.161039
				0.197342
				0.140197
				0.178005
				0.130293