<VTKFile type="UnstructuredGrid" version="0.1" byte_order="LittleEndian">
<UnstructuredGrid>
	<Piece NumberOfPoints="4224" NumberOfCells="8192">
		<CellData Scalars="density" Vectors="velocity">
			<DataArray type="Float64" Name="density" Format="ascii">
				0.97863
				0.978751
				0.97849
				0.978687
				0.978181
				0.978484
				0.977651
				0.978099
				0.976831
				0.977474
				0.975645
				0.976536
				0.974015
				0.975211
				0.971875
				0.973427
				0.969158
				0.971121
				0.965812
				0.968237
				0.961787
				0.964725
				0.957042
				0.960543
				0.951554
				0.955662
				0.94531
				0.950066
				0.938309
				0.943747
				0.930576
				0.936721
				0.922138
				0.929015
				0.913067
				0.920677
				0.903427
				0.911774
				0.893324
				0.902392
				0.88287
				0.892635
				0.87218
				0.882617
				0.861422
				0.872477
				0.850762
				0.862371
				0.840379
				0.852467
				0.830472
				0.842945
				0.82123
				0.833993
				0.812902
				0.825817
				0.805711
				0.818629
				0.799852
				0.812628
				0.795515
				0.807997
				0.79292
				0.804915
				0.79214
				0.803514
				0.793296
				0.80388
				0.796339
				0.80604
				0.801217
				0.809953
				0.807845
				0.815546
				0.81606
				0.822698
				0.825636
				0.831237
				0.836402
				0.840983
				0.848155
				0.851756
				0.860706
				0.863377
				0.873865
				0.875666
				0.88743
				0.888446
				0.901272
				0.901561
				0.915247
				0.914875
				0.929185
				0.928245
				0.943015
				0.941552
				0.956561
				0.954676
				0.96976
				0.967509
				0.982497
				0.979957
				0.994693
				0.99193
				1.00626
				1.00335
				1.01712
				1.01412
				1.02721
				1.02419
				1.03647
				1.0335
				1.04484
				1.04198
				1.05227
				1.04958
				1.05872
				1.05626
				1.06415
				1.06197
				1.06854
				1.06669
				1.07184
				1.0704
				1.07406
				1.07306
				1.07517
				1.07466
				1.07517
				1.07519
				1.07406
				1.07466
				1.07184
				1.07306
				1.06854
				1.0704
				1.06415
				1.06669
				1.05872
				1.06197
				1.05227
				1.05626
				1.04484
				1.04958
				1.03647
				1.04198
				1.02721
				1.0335
				1.01712
				1.02419
				1.00626
				1.01412
				0.994693
				1.00335
				0.982497
				0.99193
				0.969762
				0.979958
				0.956554
				0.967507
				0.943014
				0.954674
				0.929193
				0.941554
				0.915245
				0.928247
				0.901272
				0.914875
				0.88743
				0.901561
				0.873864
				0.888446
				0.860703
				0.875665
				0.848163
				0.863379
				0.8364
				0.851758
				0.825635
				0.840982
				0.816059
				0.831236
				0.807844
				0.822697
				0.801217
				0.815546
				0.796339
				0.809953
				0.793296
				0.80604
				0.79214
				0.80388
				0.79292
				0.803514
				0.795515
				0.804915
				0.799852
				0.807997
				0.805711
				0.812628
				0.812902
				0.818629
				0.82123
				0.825817
				0.830472
				0.833993
				0.84038
				0.842945
				0.850762
				0.852467
				0.861422
				0.862371
				0.87218
				0.872477
				0.88287
				0.882617
				0.893324
				0.892635
				0.903427
				0.902392
				0.913069
				0.911775
				0.922134
				0.920676
				0.930577
				0.929014
				0.938309
				0.936721
				0.94531
				0.943748
				0.951554
				0.950066
				0.957042
				0.955662
				0.961787
				0.960543
				0.965811
				0.964725
				0.969159
				0.968237
				0.971874
				0.971121
				0.974016
				0.973427
				0.975645
				0.975211
				0.976831
				0.976536
				0.977651
				0.977474
				0.978181
				0.978099
				0.97849
				0.978484
				0.97863
				0.978687
				0.979816
				0.979686
				0.979738
				0.979643
				0.979554
				0.979498
				0.979211
				0.979209
				0.978642
				0.978713
				0.977772
				0.977936
				0.97653
				0.976803
				0.974853
				0.975245
				0.972684
				0.9732
				0.969976
				0.970615
				0.966686
				0.967444
				0.962784
				0.963646
				0.958245
				0.959192
				0.953059
				0.954063
				0.947229
				0.948252
				0.940772
				0.941769
				0.933722
				0.934637
				0.926127
				0.926896
				0.918057
				0.918604
				0.909593
				0.909838
				0.900834
				0.90069
				0.891897
				0.891265
				0.882911
				0.881694
				0.874023
				0.872119
				0.865391
				0.8627
				0.857185
				0.853607
				0.849587
				0.845027
				0.842782
				0.837158
				0.83696
				0.830211
				0.832299
				0.824381
				0.828964
				0.819859
				0.82709
				0.816825
				0.826778
				0.815409
				0.828075
				0.815706
				0.830975
				0.817739
				0.835426
				0.821476
				0.841331
				0.826842
				0.848556
				0.833712
				0.856947
				0.841915
				0.866336
				0.851275
				0.87656
				0.861611
				0.887452
				0.872742
				0.898853
				0.884494
				0.910616
				0.896693
				0.922603
				0.909192
				0.934689
				0.921854
				0.946757
				0.934544
				0.958697
				0.947154
				0.970412
				0.959566
				0.98181
				0.971685
				0.992808
				0.98342
				1.00333
				0.994691
				1.0133
				1.00542
				1.02267
				1.01554
				1.03136
				1.02498
				1.03933
				1.0337
				1.04654
				1.04163
				1.05293
				1.04873
				1.05848
				1.05497
				1.06315
				1.06031
				1.06691
				1.06472
				1.06976
				1.06817
				1.07166
				1.07065
				1.07262
				1.07214
				1.07262
				1.07264
				1.07166
				1.07214
				1.06976
				1.07065
				1.06691
				1.06817
				1.06315
				1.06472
				1.05848
				1.06031
				1.05293
				1.05497
				1.04654
				1.04873
				1.03933
				1.04163
				1.03136
				1.0337
				1.02267
				1.02498
				1.0133
				1.01554
				1.00333
				1.00542
				0.992808
				0.994691
				0.981809
				0.98342
				0.970412
				0.971684
				0.958697
				0.959564
				0.946758
				0.947155
				0.934689
				0.934546
				0.922603
				0.921853
				0.910615
				0.909191
				0.898853
				0.896692
				0.887452
				0.884493
				0.87656
				0.872743
				0.866337
				0.861613
				0.856947
				0.851274
				0.848556
				0.841914
				0.841331
				0.833711
				0.835426
				0.826842
				0.830975
				0.821476
				0.828075
				0.817739
				0.826778
				0.815706
				0.82709
				0.815409
				0.828964
				0.816825
				0.832299
				0.819859
				0.83696
				0.824381
				0.842782
				0.830211
				0.849587
				0.837158
				0.857186
				0.845027
				0.865391
				0.853608
				0.874023
				0.8627
				0.882911
				0.872119
				0.891897
				0.881694
				0.900834
				0.891266
				0.909593
				0.90069
				0.918057
				0.909838
				0.926127
				0.918604
				0.933722
				0.926896
				0.940772
				0.934636
				0.947229
				0.94177
				0.953059
				0.948253
				0.958245
				0.954063
				0.962784
				0.959192
				0.966686
				0.963646
				0.969976
				0.967444
				0.972684
				0.970615
				0.974853
				0.9732
				0.976531
				0.975245
				0.977772
				0.976803
				0.978642
				0.977936
				0.979211
				0.978713
				0.979554
				0.979209
				0.979738
				0.979498
				0.979816
				0.979643
				0.980835
				0.981027
				0.980793
				0.981016
				0.980679
				0.980969
				0.980438
				0.980842
				0.979999
				0.980573
				0.979288
				0.980091
				0.978236
				0.979321
				0.976781
				0.978199
				0.97487
				0.976668
				0.972458
				0.974678
				0.969505
				0.972188
				0.96598
				0.969165
				0.961859
				0.96558
				0.95713
				0.961419
				0.951791
				0.956675
				0.945857
				0.951357
				0.939355
				0.945487
				0.932329
				0.939101
				0.924837
				0.932252
				0.916954
				0.925008
				0.90877
				0.917449
				0.900392
				0.909674
				0.891941
				0.901794
				0.883555
				0.893933
				0.875384
				0.88623
				0.86759
				0.878834
				0.86035
				0.871904
				0.853844
				0.865605
				0.848257
				0.860106
				0.843766
				0.855571
				0.840535
				0.852153
				0.838698
				0.849984
				0.838358
				0.849167
				0.839561
				0.849764
				0.842304
				0.851793
				0.846539
				0.855226
				0.852167
				0.859995
				0.859059
				0.865995
				0.867059
				0.873098
				0.876008
				0.881162
				0.885739
				0.890036
				0.896091
				0.899572
				0.90691
				0.909623
				0.918054
				0.920054
				0.929391
				0.930736
				0.940798
				0.941549
				0.952169
				0.952386
				0.963398
				0.963144
				0.974397
				0.973733
				0.985079
				0.984067
				0.99537
				0.994069
				1.0052
				1.00367
				1.0145
				1.0128
				1.02323
				1.02141
				1.03132
				1.02944
				1.03873
				1.03685
				1.04541
				1.04359
				1.05134
				1.04963
				1.05649
				1.05492
				1.06081
				1.05945
				1.0643
				1.06319
				1.06693
				1.06612
				1.06869
				1.06822
				1.06957
				1.06948
				1.06957
				1.06991
				1.06869
				1.06948
				1.06693
				1.06822
				1.0643
				1.06612
				1.06081
				1.06319
				1.05649
				1.05945
				1.05134
				1.05492
				1.04541
				1.04963
				1.03872
				1.04359
				1.03132
				1.03685
				1.02323
				1.02944
				1.0145
				1.02141
				1.0052
				1.0128
				0.995369
				1.00367
				0.985079
				0.994069
				0.974396
				0.984067
				0.963398
				0.973733
				0.952169
				0.963144
				0.940799
				0.952386
				0.929391
				0.941549
				0.918054
				0.930736
				0.90691
				0.920054
				0.896092
				0.909623
				0.885739
				0.899572
				0.876008
				0.890037
				0.867059
				0.881162
				0.859058
				0.873099
				0.852167
				0.865995
				0.846539
				0.859995
				0.842304
				0.855226
				0.839561
				0.851793
				0.838358
				0.849764
				0.838698
				0.849167
				0.840535
				0.849984
				0.843766
				0.852153
				0.848257
				0.855571
				0.853844
				0.860106
				0.86035
				0.865605
				0.867591
				0.871904
				0.875384
				0.878834
				0.883555
				0.88623
				0.891941
				0.893933
				0.900392
				0.901794
				0.90877
				0.909674
				0.916954
				0.917449
				0.924836
				0.925008
				0.932328
				0.932252
				0.939355
				0.939101
				0.945857
				0.945487
				0.951791
				0.951357
				0.95713
				0.956675
				0.961859
				0.961419
				0.96598
				0.965581
				0.969505
				0.969165
				0.972458
				0.972188
				0.97487
				0.974678
				0.976781
				0.976667
				0.978236
				0.978199
				0.979288
				0.979321
				0.979999
				0.980091
				0.980438
				0.980573
				0.980679
				0.980842
				0.980793
				0.980969
				0.980835
				0.981016
				0.982315
				0.982061
				0.982343
				0.982067
				0.982369
				0.982067
				0.982337
				0.982017
				0.982175
				0.98185
				0.981808
				0.981492
				0.981166
				0.980872
				0.980188
				0.979925
				0.978825
				0.978599
				0.977033
				0.976847
				0.974775
				0.974631
				0.972024
				0.971918
				0.968758
				0.968681
				0.964967
				0.964904
				0.960652
				0.960581
				0.955828
				0.955718
				0.950522
				0.950332
				0.944776
				0.944458
				0.938646
				0.938141
				0.932199
				0.931443
				0.925519
				0.924439
				0.918699
				0.917218
				0.911846
				0.909884
				0.905079
				0.902552
				0.898526
				0.895351
				0.892324
				0.888422
				0.886617
				0.881916
				0.881551
				0.875991
				0.877273
				0.870807
				0.873921
				0.866523
				0.871617
				0.863288
				0.870461
				0.861229
				0.870523
				0.860447
				0.871835
				0.861003
				0.874391
				0.862916
				0.878148
				0.866158
				0.883031
				0.870666
				0.888937
				0.876337
				0.895747
				0.883049
				0.903334
				0.890662
				0.911564
				0.899032
				0.920308
				0.908014
				0.929441
				0.917468
				0.938843
				0.927265
				0.948406
				0.937279
				0.958027
				0.947399
				0.967613
				0.957523
				0.977078
				0.967556
				0.986345
				0.977413
				0.995343
				0.987016
				1.00401
				0.996295
				1.01228
				1.00519
				1.0201
				1.01363
				1.02743
				1.02158
				1.03423
				1.02899
				1.04045
				1.03581
				1.04606
				1.04201
				1.05104
				1.04755
				1.05535
				1.05242
				1.05898
				1.05657
				1.0619
				1.06
				1.0641
				1.06268
				1.06558
				1.0646
				1.06632
				1.06576
				1.06632
				1.06615
				1.06558
				1.06576
				1.0641
				1.0646
				1.0619
				1.06268
				1.05898
				1.06
				1.05535
				1.05657
				1.05104
				1.05242
				1.04606
				1.04755
				1.04045
				1.04201
				1.03423
				1.03581
				1.02743
				1.02899
				1.0201
				1.02158
				1.01228
				1.01363
				1.00401
				1.00519
				0.995343
				0.996294
				0.986345
				0.987016
				0.977078
				0.977413
				0.967613
				0.967556
				0.958027
				0.957523
				0.948406
				0.9474
				0.938843
				0.937279
				0.929441
				0.927265
				0.920308
				0.917469
				0.911564
				0.908014
				0.903334
				0.899032
				0.895748
				0.890662
				0.888937
				0.883049
				0.883031
				0.876337
				0.878148
				0.870666
				0.874391
				0.866158
				0.871835
				0.862916
				0.870523
				0.861003
				0.870461
				0.860447
				0.871617
				0.861229
				0.873921
				0.863288
				0.877273
				0.866523
				0.881551
				0.870807
				0.886617
				0.875991
				0.892324
				0.881916
				0.898526
				0.888422
				0.905079
				0.895351
				0.911846
				0.902552
				0.918699
				0.909884
				0.925519
				0.917219
				0.932199
				0.924439
				0.938646
				0.931444
				0.944776
				0.938141
				0.950522
				0.944458
				0.955828
				0.950332
				0.960652
				0.955718
				0.964967
				0.960581
				0.968758
				0.964905
				0.972024
				0.968681
				0.974775
				0.971918
				0.977033
				0.974631
				0.978825
				0.976847
				0.980188
				0.978599
				0.981166
				0.979925
				0.981808
				0.980872
				0.982175
				0.981492
				0.982337
				0.98185
				0.982369
				0.982017
				0.982343
				0.982067
				0.982315
				0.982067
				0.983287
				0.983599
				0.983345
				0.983643
				0.983427
				0.983761
				0.983472
				0.983904
				0.983406
				0.984
				0.983151
				0.983971
				0.98264
				0.98374
				0.981815
				0.983239
				0.98063
				0.982413
				0.979045
				0.981217
				0.977027
				0.979612
				0.974549
				0.977569
				0.971592
				0.975064
				0.968147
				0.972085
				0.964216
				0.968631
				0.959812
				0.964711
				0.954961
				0.960347
				0.949702
				0.955574
				0.944083
				0.95044
				0.938169
				0.945001
				0.932035
				0.939328
				0.925766
				0.933501
				0.919461
				0.927609
				0.913229
				0.921754
				0.907187
				0.916042
				0.901465
				0.910591
				0.896195
				0.905522
				0.891515
				0.900962
				0.887561
				0.897035
				0.884466
				0.893863
				0.882342
				0.891555
				0.881287
				0.890205
				0.881364
				0.889883
				0.882606
				0.89063
				0.885008
				0.892455
				0.888529
				0.895337
				0.893097
				0.899225
				0.898617
				0.904042
				0.904975
				0.909692
				0.912049
				0.916071
				0.919715
				0.923065
				0.927848
				0.930559
				0.93633
				0.938442
				0.94505
				0.946608
				0.953904
				0.954954
				0.962797
				0.963389
				0.971642
				0.971826
				0.980361
				0.980186
				0.988883
				0.988398
				0.997143
				0.996397
				1.00508
				1.00412
				1.01265
				1.01152
				1.0198
				1.01855
				1.02649
				1.02516
				1.03268
				1.03131
				1.03834
				1.03698
				1.04344
				1.04213
				1.04796
				1.04673
				1.05187
				1.05076
				1.05515
				1.0542
				1.0578
				1.05704
				1.0598
				1.05926
				1.06113
				1.06086
				1.0618
				1.06182
				1.0618
				1.06214
				1.06113
				1.06182
				1.0598
				1.06086
				1.0578
				1.05926
				1.05515
				1.05704
				1.05187
				1.0542
				1.04796
				1.05076
				1.04344
				1.04673
				1.03834
				1.04213
				1.03268
				1.03698
				1.02649
				1.03131
				1.0198
				1.02516
				1.01265
				1.01855
				1.00508
				1.01152
				0.997142
				1.00412
				0.988883
				0.996396
				0.980361
				0.988398
				0.971642
				0.980186
				0.962797
				0.971826
				0.953904
				0.963389
				0.94505
				0.954955
				0.93633
				0.946607
				0.927848
				0.938442
				0.919715
				0.930559
				0.912049
				0.923065
				0.904975
				0.916071
				0.898617
				0.909692
				0.893097
				0.904041
				0.888529
				0.899225
				0.885008
				0.895337
				0.882606
				0.892455
				0.881364
				0.89063
				0.881287
				0.889883
				0.882342
				0.890205
				0.884466
				0.891555
				0.887562
				0.893863
				0.891515
				0.897035
				0.896194
				0.900962
				0.901465
				0.905522
				0.907187
				0.910591
				0.913229
				0.916042
				0.919461
				0.921754
				0.925766
				0.92761
				0.932035
				0.933501
				0.938169
				0.939328
				0.944083
				0.945001
				0.949702
				0.95044
				0.954961
				0.955574
				0.959812
				0.960347
				0.964216
				0.964711
				0.968147
				0.968631
				0.971592
				0.972085
				0.974549
				0.975064
				0.977027
				0.977569
				0.979045
				0.979612
				0.98063
				0.981217
				0.981815
				0.982413
				0.98264
				0.983239
				0.983151
				0.98374
				0.983406
				0.983971
				0.983472
				0.984
				0.983427
				0.983904
				0.983345
				0.983761
				0.983287
				0.983643
				0.984821
				0.984405
				0.984968
				0.984464
				0.985224
				0.984621
				0.985521
				0.984822
				0.985773
				0.984993
				0.985892
				0.985049
				0.9858
				0.984913
				0.985435
				0.984521
				0.984744
				0.983822
				0.98369
				0.982775
				0.98224
				0.981347
				0.980372
				0.979511
				0.978075
				0.977249
				0.975345
				0.974552
				0.972192
				0.971418
				0.968636
				0.96786
				0.964707
				0.963899
				0.960446
				0.959568
				0.955904
				0.95491
				0.951139
				0.949977
				0.946219
				0.944832
				0.941218
				0.939548
				0.936221
				0.934206
				0.931317
				0.928896
				0.926603
				0.923717
				0.922182
				0.918775
				0.918157
				0.91418
				0.914636
				0.910049
				0.911721
				0.906497
				0.909508
				0.903634
				0.90808
				0.901562
				0.907504
				0.900366
				0.907825
				0.900111
				0.909062
				0.900835
				0.91121
				0.902546
				0.914236
				0.905226
				0.918087
				0.908826
				0.922692
				0.913275
				0.927964
				0.918487
				0.933811
				0.924362
				0.940135
				0.930794
				0.946839
				0.937678
				0.95383
				0.94491
				0.961016
				0.95239
				0.968314
				0.960026
				0.975644
				0.96773
				0.982936
				0.975424
				0.990124
				0.983036
				0.997148
				0.990501
				1.00395
				0.997759
				1.0105
				1.00476
				1.01673
				1.01145
				1.02261
				1.0178
				1.02812
				1.02376
				1.03321
				1.0293
				1.03786
				1.0344
				1.04206
				1.03902
				1.04576
				1.04315
				1.04898
				1.04677
				1.05167
				1.04985
				1.05384
				1.05239
				1.05548
				1.05438
				1.05657
				1.05581
				1.05712
				1.05666
				1.05712
				1.05695
				1.05657
				1.05666
				1.05548
				1.05581
				1.05384
				1.05438
				1.05167
				1.05239
				1.04898
				1.04985
				1.04576
				1.04677
				1.04206
				1.04315
				1.03786
				1.03902
				1.03321
				1.0344
				1.02812
				1.0293
				1.02261
				1.02376
				1.01673
				1.0178
				1.0105
				1.01145
				1.00395
				1.00476
				0.997148
				0.997759
				0.990124
				0.990501
				0.982936
				0.983036
				0.975644
				0.975424
				0.968313
				0.96773
				0.961016
				0.960026
				0.95383
				0.95239
				0.94684
				0.94491
				0.940135
				0.937678
				0.933811
				0.930794
				0.927964
				0.924362
				0.922692
				0.918487
				0.918087
				0.913276
				0.914236
				0.908826
				0.91121
				0.905226
				0.909062
				0.902546
				0.907825
				0.900835
				0.907504
				0.900111
				0.90808
				0.900366
				0.909508
				0.901562
				0.911721
				0.903634
				0.914636
				0.906497
				0.918157
				0.910049
				0.922182
				0.914181
				0.926603
				0.918775
				0.931317
				0.923717
				0.936221
				0.928896
				0.941218
				0.934206
				0.946218
				0.939548
				0.951139
				0.944832
				0.955904
				0.949977
				0.960446
				0.95491
				0.964707
				0.959568
				0.968636
				0.963899
				0.972192
				0.96786
				0.975345
				0.971418
				0.978075
				0.974552
				0.980372
				0.977249
				0.98224
				0.979511
				0.983689
				0.981347
				0.984744
				0.982775
				0.985435
				0.983822
				0.9858
				0.984521
				0.985892
				0.984913
				0.985773
				0.985049
				0.985521
				0.984993
				0.985224
				0.984823
				0.984968
				0.984621
				0.984821
				0.984464
				0.985379
				0.985832
				0.985552
				0.985942
				0.985854
				0.986247
				0.986211
				0.986685
				0.986531
				0.987164
				0.986723
				0.987584
				0.986712
				0.987849
				0.986436
				0.987882
				0.985852
				0.987626
				0.984927
				0.987037
				0.983634
				0.986085
				0.981957
				0.984748
				0.979889
				0.983018
				0.977429
				0.980893
				0.97459
				0.978384
				0.971391
				0.975512
				0.967861
				0.972306
				0.964038
				0.968801
				0.959967
				0.965041
				0.955701
				0.961078
				0.951299
				0.956966
				0.946829
				0.95277
				0.942365
				0.948557
				0.937988
				0.944402
				0.933784
				0.940383
				0.929844
				0.936585
				0.926264
				0.933093
				0.923139
				0.929996
				0.920561
				0.92738
				0.918616
				0.925326
				0.91738
				0.923908
				0.916912
				0.923184
				0.917252
				0.923201
				0.918417
				0.923982
				0.920403
				0.925532
				0.923179
				0.927836
				0.926698
				0.930856
				0.930894
				0.934542
				0.935689
				0.938827
				0.940999
				0.943637
				0.946735
				0.948893
				0.952808
				0.954511
				0.959131
				0.960411
				0.965624
				0.966514
				0.972208
				0.972744
				0.978813
				0.979032
				0.985373
				0.985313
				0.99183
				0.991527
				0.99813
				0.997622
				1.00423
				1.00355
				1.01008
				1.00926
				1.01564
				1.01473
				1.02089
				1.0199
				1.02579
				1.02477
				1.03032
				1.02929
				1.03445
				1.03344
				1.03817
				1.0372
				1.04146
				1.04057
				1.0443
				1.04351
				1.04668
				1.04602
				1.0486
				1.04809
				1.05005
				1.0497
				1.05101
				1.05086
				1.0515
				1.05156
				1.0515
				1.05179
				1.05101
				1.05156
				1.05005
				1.05086
				1.0486
				1.0497
				1.04668
				1.04809
				1.0443
				1.04602
				1.04146
				1.04351
				1.03817
				1.04057
				1.03445
				1.0372
				1.03032
				1.03344
				1.02579
				1.02929
				1.02089
				1.02477
				1.01564
				1.0199
				1.01008
				1.01473
				1.00423
				1.00926
				0.99813
				1.00355
				0.99183
				0.997622
				0.985373
				0.991527
				0.978813
				0.985313
				0.972208
				0.979032
				0.965624
				0.972744
				0.959131
				0.966514
				0.952808
				0.960411
				0.946735
				0.954511
				0.940999
				0.948893
				0.935689
				0.943638
				0.930894
				0.938827
				0.926698
				0.934542
				0.923179
				0.930856
				0.920403
				0.927836
				0.918417
				0.925532
				0.917252
				0.923982
				0.916912
				0.923201
				0.91738
				0.923184
				0.918616
				0.923908
				0.920561
				0.925326
				0.923139
				0.92738
				0.926264
				0.929996
				0.929844
				0.933093
				0.933784
				0.936585
				0.937988
				0.940383
				0.942365
				0.944402
				0.946829
				0.948557
				0.951299
				0.95277
				0.955701
				0.956966
				0.959967
				0.961078
				0.964038
				0.965041
				0.967861
				0.968801
				0.971391
				0.972306
				0.97459
				0.975512
				0.977429
				0.978384
				0.979889
				0.980893
				0.981957
				0.983018
				0.983634
				0.984748
				0.984927
				0.986085
				0.985852
				0.987037
				0.986436
				0.987626
				0.986711
				0.987882
				0.986723
				0.987849
				0.986531
				0.987583
				0.986211
				0.987164
				0.985854
				0.986685
				0.985551
				0.986247
				0.985379
				0.985942
				0.986662
				0.986072
				0.986945
				0.986194
				0.98746
				0.986536
				0.988112
				0.987027
				0.988786
				0.987567
				0.989365
				0.988049
				0.989754
				0.988379
				0.98988
				0.988482
				0.989694
				0.988307
				0.989164
				0.987817
				0.988274
				0.986988
				0.987017
				0.985806
				0.985397
				0.984266
				0.983429
				0.982373
				0.981133
				0.980139
				0.978538
				0.977585
				0.975678
				0.974737
				0.972592
				0.971629
				0.969323
				0.9683
				0.965919
				0.964795
				0.962431
				0.961164
				0.958916
				0.957462
				0.955432
				0.953749
				0.952046
				0.950092
				0.948824
				0.946559
				0.945837
				0.943226
				0.943157
				0.940169
				0.940854
				0.937465
				0.938997
				0.935191
				0.937647
				0.933419
				0.936858
				0.932213
				0.93667
				0.931625
				0.937111
				0.931695
				0.938191
				0.932443
				0.939906
				0.933874
				0.942232
				0.935972
				0.945134
				0.938706
				0.948563
				0.942028
				0.952462
				0.945881
				0.956766
				0.950198
				0.961409
				0.954907
				0.966321
				0.959934
				0.971435
				0.965206
				0.976686
				0.970653
				0.982013
				0.976208
				0.987357
				0.981806
				0.992667
				0.987391
				0.997894
				0.992909
				1.00299
				0.998313
				1.00793
				1.00356
				1.01266
				1.00861
				1.01717
				1.01344
				1.02141
				1.018
				1.02538
				1.02228
				1.02904
				1.02626
				1.03238
				1.02991
				1.03538
				1.03321
				1.03804
				1.03616
				1.04033
				1.03873
				1.04226
				1.04093
				1.04381
				1.04273
				1.04497
				1.04414
				1.04575
				1.04516
				1.04614
				1.04576
				1.04614
				1.04597
				1.04575
				1.04576
				1.04497
				1.04516
				1.04381
				1.04414
				1.04226
				1.04273
				1.04033
				1.04093
				1.03804
				1.03873
				1.03538
				1.03616
				1.03238
				1.03321
				1.02904
				1.02991
				1.02538
				1.02626
				1.02141
				1.02228
				1.01717
				1.018
				1.01266
				1.01344
				1.00793
				1.00861
				1.00299
				1.00356
				0.997894
				0.998313
				0.992667
				0.992909
				0.987357
				0.987391
				0.982012
				0.981806
				0.976686
				0.976207
				0.971435
				0.970653
				0.966321
				0.965206
				0.961409
				0.959934
				0.956766
				0.954907
				0.952462
				0.950198
				0.948563
				0.945881
				0.945134
				0.942028
				0.942232
				0.938706
				0.939906
				0.935972
				0.938191
				0.933874
				0.937111
				0.932443
				0.93667
				0.931695
				0.936858
				0.931625
				0.937647
				0.932213
				0.938997
				0.933419
				0.940854
				0.935191
				0.943157
				0.937465
				0.945837
				0.940169
				0.948824
				0.943226
				0.952046
				0.946559
				0.955432
				0.950092
				0.958916
				0.953749
				0.962431
				0.957462
				0.965919
				0.961164
				0.969323
				0.964795
				0.972592
				0.9683
				0.975678
				0.971629
				0.978538
				0.974737
				0.981133
				0.977585
				0.983429
				0.980139
				0.985397
				0.982373
				0.987017
				0.984266
				0.988274
				0.985806
				0.989165
				0.986988
				0.989694
				0.987817
				0.98988
				0.988307
				0.989754
				0.988482
				0.989365
				0.988379
				0.988786
				0.988049
				0.988112
				0.987566
				0.98746
				0.987027
				0.986945
				0.986536
				0.986662
				0.986194
				0.986566
				0.98715
				0.986877
				0.987334
				0.987439
				0.987852
				0.988151
				0.988615
				0.988886
				0.989494
				0.989527
				0.99035
				0.989978
				0.99106
				0.990173
				0.991532
				0.990069
				0.991705
				0.989643
				0.991545
				0.988885
				0.991037
				0.987794
				0.990181
				0.986377
				0.988986
				0.984651
				0.987471
				0.982638
				0.985659
				0.980363
				0.983579
				0.977859
				0.981265
				0.975159
				0.978752
				0.972303
				0.976076
				0.969331
				0.973279
				0.96629
				0.970403
				0.963229
				0.967494
				0.9602
				0.9646
				0.957261
				0.961773
				0.95447
				0.959068
				0.95189
				0.956542
				0.949582
				0.954253
				0.94761
				0.952257
				0.946032
				0.950612
				0.9449
				0.949368
				0.944262
				0.948572
				0.944153
				0.948259
				0.944594
				0.948457
				0.945595
				0.949179
				0.94715
				0.950427
				0.94924
				0.952188
				0.951832
				0.954439
				0.954884
				0.957145
				0.958346
				0.960262
				0.96216
				0.963741
				0.966267
				0.967528
				0.970607
				0.971566
				0.97512
				0.975799
				0.979748
				0.980171
				0.984437
				0.98463
				0.989137
				0.989125
				0.993799
				0.993611
				0.998384
				0.998044
				1.00285
				1.00239
				1.00717
				1.0066
				1.0113
				1.01066
				1.01523
				1.01454
				1.01893
				1.0182
				1.02238
				1.02164
				1.02556
				1.02483
				1.02846
				1.02776
				1.03107
				1.03041
				1.03337
				1.03277
				1.03535
				1.03483
				1.03702
				1.03659
				1.03835
				1.03804
				1.03936
				1.03917
				1.04003
				1.03998
				1.04037
				1.04047
				1.04037
				1.04063
				1.04003
				1.04047
				1.03936
				1.03998
				1.03835
				1.03917
				1.03702
				1.03804
				1.03535
				1.03659
				1.03337
				1.03483
				1.03107
				1.03277
				1.02846
				1.03041
				1.02556
				1.02776
				1.02238
				1.02483
				1.01893
				1.02164
				1.01523
				1.0182
				1.0113
				1.01454
				1.00717
				1.01066
				1.00285
				1.0066
				0.998384
				1.00239
				0.993799
				0.998044
				0.989137
				0.993611
				0.984437
				0.989125
				0.979748
				0.98463
				0.97512
				0.980171
				0.970607
				0.975799
				0.966267
				0.971566
				0.96216
				0.967528
				0.958346
				0.963741
				0.954884
				0.960262
				0.951832
				0.957145
				0.94924
				0.954439
				0.94715
				0.952188
				0.945595
				0.950427
				0.944594
				0.949179
				0.944153
				0.948457
				0.944262
				0.948259
				0.9449
				0.948572
				0.946032
				0.949368
				0.94761
				0.950612
				0.949582
				0.952257
				0.95189
				0.954253
				0.95447
				0.956542
				0.957261
				0.959068
				0.9602
				0.961773
				0.963229
				0.9646
				0.96629
				0.967494
				0.969331
				0.970403
				0.972303
				0.973279
				0.975159
				0.976076
				0.977859
				0.978752
				0.980363
				0.981265
				0.982638
				0.983579
				0.984651
				0.985659
				0.986377
				0.987471
				0.987794
				0.988986
				0.988885
				0.990181
				0.989643
				0.991037
				0.990069
				0.991545
				0.990173
				0.991705
				0.989978
				0.991532
				0.989527
				0.99106
				0.988886
				0.99035
				0.988151
				0.989494
				0.987439
				0.988615
				0.986877
				0.987852
				0.986566
				0.987334
				0.987477
				0.986734
				0.987914
				0.986933
				0.988713
				0.987492
				0.98974
				0.988314
				0.990832
				0.989259
				0.991833
				0.99018
				0.992623
				0.990953
				0.993125
				0.99149
				0.993297
				0.991739
				0.993126
				0.991672
				0.992616
				0.991283
				0.991783
				0.990575
				0.99065
				0.989562
				0.989245
				0.988262
				0.987599
				0.986702
				0.985744
				0.984907
				0.983713
				0.982907
				0.981539
				0.980735
				0.979256
				0.978423
				0.9769
				0.976008
				0.974509
				0.973526