<VTKFile type="UnstructuredGrid" version="0.1" byte_order="LittleEndian">
<UnstructuredGrid>
	<Piece NumberOfPoints="1088" NumberOfCells="2048">
		<CellData Scalars="density" Vectors="velocity">
			<DataArray type="Float64" Name="density" Format="ascii">
				1.32633
				1.36387
				1.16823
				1.30679
				1.07182
				1.15231
				1.00819
				1.06134
				0.960324
				1.00096
				0.920129
				0.954913
				0.883712
				0.915662
				0.849339
				0.879736
				0.816465
				0.845737
				0.785259
				0.813391
				0.756242
				0.783037
				0.730134
				0.755299
				0.707818
				0.730962
				0.690255
				0.710915
				0.678468
				0.696094
				0.673245
				0.687345
				0.675012
				0.685195
				0.683681
				0.689734
				0.698707
				0.700696
				0.718895
				0.717421
				0.743239
				0.738554
				0.770829
				0.763159
				0.800915
				0.790423
				0.832925
				0.819681
				0.866425
				0.850428
				0.901139
				0.882293
				0.936855
				0.915025
				0.973362
				0.948433
				1.01028
				0.982313
				1.04619
				1.01627
				1.07895
				1.04916
				1.09533
				1.07922
				1.09546
				1.09568
				1.07691
				1.07737
				1.04368
				1.04687
				1.00731
				1.01358
				0.970316
				0.979525
				0.933747
				0.945579
				0.897939
				0.912085
				0.863095
				0.879236
				0.829422
				0.847218
				0.797194
				0.816281
				0.766848
				0.786794
				0.738958
				0.759267
				0.714277
				0.734363
				0.693735
				0.712907
				0.678373
				0.695872
				0.669398
				0.684607
				0.667377
				0.679788
				0.672418
				0.681708
				0.684087
				0.690285
				0.701561
				0.704974
				0.723767
				0.724887
				0.749685
				0.749038
				0.778365
				0.776474
				0.808986
				0.80632
				0.840864
				0.837808
				0.873549
				0.870346
				0.907112
				0.90377
				0.942481
				0.938712
				0.982096
				0.977234
				1.0311
				1.02401
				1.10019
				1.08891
				1.26407
				1.20123
				1.28493
				1.30239
				1.09252
				1.27812
				1.04986
				1.08202
				1.04222
				1.04541
				1.02694
				1.03631
				0.999607
				1.01939
				0.966091
				0.99031
				0.932036
				0.954992
				0.900317
				0.919045
				0.871854
				0.885369
				0.846805
				0.855065
				0.825363
				0.828599
				0.808094
				0.806506
				0.79591
				0.789628
				0.789785
				0.779003
				0.790401
				0.775523
				0.797894
				0.779584
				0.811795
				0.790905
				0.831595
				0.808657
				0.855814
				0.831326
				0.882654
				0.857492
				0.911006
				0.885785
				0.939855
				0.915091
				0.968295
				0.944434
				0.995534
				0.972963
				1.02089
				0.999956
				1.04375
				1.02481
				1.06357
				1.04704
				1.07973
				1.06625
				1.09155
				1.08206
				1.09728
				1.09411
				1.10052
				1.10189
				1.10043
				1.09883
				1.0968
				1.102
				1.09066
				1.09317
				1.07859
				1.08086
				1.06213
				1.06479
				1.04203
				1.04534
				1.01888
				1.02285
				0.993238
				0.997715
				0.965688
				0.970415
				0.936915
				0.941552
				0.907711
				0.911848
				0.878983
				0.882153
				0.85175
				0.853446
				0.82713
				0.826848
				0.806977
				0.803736
				0.792746
				0.785589
				0.784994
				0.773938
				0.78421
				0.769642
				0.790263
				0.772998
				0.802459
				0.783606
				0.819806
				0.800549
				0.841368
				0.822765
				0.866575
				0.849405
				0.895282
				0.879971
				0.927469
				0.914134
				0.962527
				0.951095
				0.998066
				0.988446
				1.02868
				1.02084
				1.04678
				1.04066
				1.04984
				1.04528
				1.05438
				1.05086
				1.19595
				1.12058
				1.24575
				1.20464
				1.06174
				1.12971
				1.02259
				1.03117
				0.994449
				1.01514
				0.963071
				0.993172
				0.940036
				0.971059
				0.925184
				0.954384
				0.916462
				0.943367
				0.911717
				0.936568
				0.90905
				0.932321
				0.906999
				0.929221
				0.904643
				0.926261
				0.901679
				0.922895
				0.898455
				0.919102
				0.895882
				0.915388
				0.895152
				0.912651
				0.897325
				0.911851
				0.902993
				0.913681
				0.912312
				0.918541
				0.9251
				0.926696
				0.940889
				0.937808
				0.958672
				0.951125
				0.977514
				0.965808
				0.996587
				0.981076
				1.01518
				0.996232
				1.03268
				1.01066
				1.0486
				1.02386
				1.06256
				1.03546
				1.07427
				1.04526
				1.08356
				1.05334
				1.08947
				1.05985
				1.09449
				1.06638
				1.09443
				1.07148
				1.08859
				1.06517
				1.08281
				1.05936
				1.07352
				1.05278
				1.06164
				1.04461
				1.04746
				1.03463
				1.0313
				1.02282
				1.01353
				1.00937
				0.994648
				0.994673
				0.975267
				0.979233
				0.956094
				0.963662
				0.93796
				0.948659
				0.921805
				0.935005
				0.908654
				0.923547
				0.898965
				0.915041
				0.893003
				0.909838
				0.890645
				0.907733
				0.891316
				0.908357
				0.893947
				0.911026
				0.897303
				0.91476
				0.900425
				0.918622
				0.902918
				0.922057
				0.905045
				0.925046
				0.907697
				0.928111
				0.912305
				0.93225
				0.920724
				0.93888
				0.934993
				0.94973
				0.956984
				0.966442
				0.98784
				0.989443
				1.02054
				1.01472
				1.03123
				1.02833
				1.15437
				1.07393
				1.15339
				1.1951
				1.05627
				1.12546
				1.02497
				1.03301
				1.00182
				1.02341
				0.985079
				0.99932
				0.975583
				0.981755
				0.970066
				0.971265
				0.965563
				0.96462
				0.960251
				0.958955
				0.953431
				0.952542
				0.94525
				0.944757
				0.936393
				0.935813
				0.927828
				0.926474
				0.920622
				0.917809
				0.915801
				0.911006
				0.914217
				0.90718
				0.916404
				0.907167
				0.922755
				0.9114
				0.932473
				0.919587
				0.94426
				0.930746
				0.957576
				0.943925
				0.971804
				0.958449
				0.986338
				0.973636
				1.00062
				0.98886
				1.01418
				1.00358
				1.02659
				1.01733
				1.03754
				1.02976
				1.0468
				1.04064
				1.05423
				1.04983
				1.05943
				1.05733
				1.06051
				1.06272
				1.0651
				1.0661
				1.0649
				1.06666
				1.06071
				1.06497
				1.05915
				1.06237
				1.05377
				1.05684
				1.04618
				1.04922
				1.03672
				1.03984
				1.02555
				1.02875
				1.01291
				1.01609
				0.999111
				1.00208
				0.98456
				0.987097
				0.969743
				0.971584
				0.955218
				0.95609
				0.941594
				0.941243
				0.929501
				0.927734
				0.919495
				0.916253
				0.912912
				0.90778
				0.910556
				0.903323
				0.912034
				0.903185
				0.916807
				0.906935
				0.924009
				0.913724
				0.9326
				0.92242
				0.941507
				0.931819
				0.949756
				0.940839
				0.956657
				0.948707
				0.962046
				0.95519
				0.966593
				0.960886
				0.972082
				0.967484
				0.981492
				0.97786
				0.998501
				0.995634
				1.02472
				1.02262
				1.04787
				1.0432
				1.1334
				1.06538
				1.14719
				1.13805
				1.04876
				1.08379
				0.996086
				1.00965
				0.969886
				0.986341
				0.960393
				0.976939
				0.95944
				0.974918
				0.961428
				0.975751
				0.963573
				0.976948
				0.964858
				0.97754
				0.965182
				0.977379
				0.964791
				0.976627
				0.963984
				0.975491
				0.963008
				0.974133
				0.962076
				0.972673
				0.961414
				0.971235
				0.961295
				0.96999
				0.962037
				0.969174
				0.963874
				0.969089
				0.967409
				0.970275
				0.973041
				0.973219
				0.980344
				0.977853
				0.988808
				0.98376
				0.997916
				0.990481
				1.00719
				0.997569
				1.01621
				1.00462
				1.02464
				1.0113
				1.03224
				1.01734
				1.03887
				1.02259
				1.04452
				1.02699
				1.04908
				1.03065
				1.05083
				1.0339
				1.05516
				1.03727
				1.05503
				1.03924
				1.05102
				1.03723
				1.04884
				1.03369
				1.04417
				1.03042
				1.0384
				1.02666
				1.03162
				1.02212
				1.02385
				1.01672
				1.01523
				1.01051
				1.00602
				1.00366
				0.996544
				0.996422
				0.987223
				0.989139
				0.978544
				0.982218
				0.971031
				0.976113
				0.965209
				0.971291
				0.961518
				0.968182
				0.959567
				0.966864
				0.958762
				0.966861
				0.958862
				0.96763
				0.959543
				0.968864
				0.960516
				0.970317
				0.961544
				0.971811
				0.962411
				0.973212
				0.962866
				0.974399
				0.962611
				0.975208
				0.961389
				0.975435
				0.959264
				0.974911
				0.957144
				0.973759
				0.957583
				0.97287
				0.965822
				0.974579
				0.990532
				0.983267
				1.03603
				1.00433
				1.12275
				1.07319
				1.10581
				1.13727
				1.0231
				1.08592
				0.988135
				1.0123
				0.98257
				0.987137
				0.983902
				0.981256
				0.986578
				0.982135
				0.988349
				0.984313
				0.988569
				0.985594
				0.987248
				0.985354
				0.984647
				0.983624
				0.981142
				0.980686
				0.977201
				0.976947
				0.973357
				0.972909
				0.970157
				0.969137
				0.9681
				0.966208
				0.967566
				0.96463
				0.968762
				0.964773
				0.972031
				0.966836
				0.976386
				0.970654
				0.981611
				0.975613
				0.987525
				0.981473
				0.993875
				0.987978
				1.00038
				0.994826
				1.00677
				1.00171
				1.0128
				1.00836
				1.01828
				1.01453
				1.02305
				1.02006
				1.02701
				1.02483
				1.0301
				1.0288
				1.03214
				1.03194
				1.03391
				1.03407
				1.0353
				1.03564
				1.03524
				1.03607
				1.03353
				1.03558
				1.03198
				1.03387
				1.02983
				1.03167
				1.02664
				1.02842
				1.02255
				1.02434
				1.01765
				1.01944
				1.01204
				1.01377
				1.00586
				1.00745
				0.999312
				1.00064
				0.992646
				0.993588
				0.986135
				0.98657
				0.980066
				0.979896
				0.974696
				0.973875
				0.970213
				0.968771
				0.96684
				0.964832
				0.965588
				0.962685
				0.966104
				0.962501
				0.968181
				0.964079
				0.971435
				0.967048
				0.975366
				0.970896
				0.979423
				0.975043
				0.983068
				0.978917
				0.985828
				0.982011
				0.987317
				0.983909
				0.98727
				0.984319
				0.985653
				0.983192
				0.983047
				0.981084
				0.981528
				0.980023
				0.986323
				0.985142
				1.01553
				1.00822
				1.11073
				1.0744
				1.09974
				1.10267
				1.01586
				1.04255
				0.973073
				0.979467
				0.971013
				0.979652
				0.976126
				0.984473
				0.981409
				0.988964
				0.985102
				0.991898
				0.98716
				0.993351
				0.987995
				0.993729
				0.988068
				0.993451
				0.987761
				0.992852
				0.987355
				0.992166
				0.987025
				0.991526
				0.986867
				0.990991
				0.986932
				0.990575
				0.987259
				0.990288
				0.987904
				0.990168
				0.988783
				0.990293
				0.990467
				0.990858
				0.992971
				0.992163
				0.996128
				0.994129
				0.999737
				0.996585
				1.00359
				0.999347
				1.00747
				1.00223
				1.01122
				1.00506
				1.01467
				1.0077
				1.01774
				1.01004
				1.02037
				1.01202
				1.02254
				1.01362
				1.0243
				1.01493
				1.02621
				1.01631
				1.02728
				1.01845
				1.02721
				1.01881
				1.02585
				1.01828
				1.02415
				1.01619
				1.02233
				1.01477
				1.02007
				1.01339
				1.01736
				1.01171
				1.01419
				1.00964
				1.01063
				1.00721
				1.00679
				1.00448
				1.00279
				1.00155
				0.998841
				0.998571
				0.995135
				0.995721
				0.991893
				0.993185
				0.989323
				0.991153
				0.987596
				0.989802
				0.986704
				0.989217
				0.986057
				0.98909
				0.985744
				0.989223
				0.985705
				0.989535
				0.985898
				0.989988
				0.986275
				0.990568
				0.986738
				0.991262
				0.987113
				0.992012
				0.987124
				0.992689
				0.986388
				0.99306
				0.984443
				0.992792
				0.980857
				0.991467
				0.975607
				0.988665
				0.970222
				0.98426
				0.971043
				0.979304
				1.00657
				0.977939
				1.10098
				1.03761
				1.06143
				1.09891
				0.988786
				1.03895
				0.982195
				0.982171
				0.988148
				0.981632
				0.992704
				0.987429
				0.995259
				0.991806
				0.996244
				0.994193
				0.996148
				0.995024
				0.995335
				0.994789
				0.994066
				0.993861
				0.99255
				0.992508
				0.990985
				0.990953
				0.989577
				0.989404
				0.988531
				0.988078
				0.988034
				0.987188
				0.988216
				0.986918
				0.98914
				0.987392
				0.990885
				0.988643
				0.992921
				0.990567
				0.995228
				0.99283
				0.997735
				0.995374
				1.00035
				0.998104
				1.00297
				1.00091
				1.00549
				1.00367
				1.00782
				1.00629
				1.00988
				1.00867
				1.01164
				1.01075
				1.01305
				1.01249
				1.0141
				1.01388
				1.01474
				1.01491
				1.01592
				1.01551
				1.01633
				1.01663
				1.01628
				1.01669
				1.01576
				1.01652
				1.01463
				1.0154
				1.01391
				1.01474
				1.0128
				1.01364
				1.01131
				1.01217
				1.00948
				1.01035
				1.00734
				1.00819
				1.00493
				1.00573
				1.00234
				1.00303
				0.999644
				1.00019
				0.996958
				0.997307
				0.994387
				0.994505
				0.992024
				0.991897
				0.989943
				0.989581
				0.988164
				0.987617
				0.987234
				0.986349
				0.987072
				0.985883
				0.987614
				0.986187
				0.988727
				0.987136
				0.99022
				0.98854
				0.991882
				0.990183
				0.993503
				0.991842
				0.99488
				0.993304
				0.995801
				0.994343
				0.996004
				0.99469
				0.995125
				0.993972
				0.992673
				0.991698
				0.988182
				0.987397
				0.982076
				0.981465
				0.985917
				0.980465
				1.06268
				1.03352
				1.05711
				1.05818
				0.984892
				1.0028
				0.97668
				0.979181
				0.98416
				0.988279
				0.989702
				0.993463
				0.992909
				0.996099
				0.994534
				0.997242
				0.995215
				0.997566
				0.995376
				0.997467
				0.995288
				0.997179
				0.995126
				0.996849
				0.994999
				0.996559
				0.99497
				0.996353
				0.995066
				0.996243
				0.995293
				0.996224
				0.995652
				0.996289
				0.996143
				0.996441
				0.996689
				0.996704
				0.997572
				0.99711
				0.998732
				0.997801
				1.00009
				0.998709
				1.00158
				0.999759
				1.0031
				1.00088
				1.00459
				1.00199
				1.00598
				1.00305
				1.00723
				1.00399
				1.0083
				1.0048
				1.00918
				1.00544
				1.00987
				1.00593
				1.01042
				1.00633
				1.01159
				1.00682
				1.01183
				1.0079
				1.01179
				1.00796
				1.01145
				1.00783
				1.01033
				1.00675
				1.00973
				1.00622
				1.00898
				1.00577
				1.00805
				1.00523
				1.00692
				1.00454
				1.00562
				1.00369
				1.00418
				1.0027
				1.00264
				1.0016
				1.00108
				1.00044
				0.999553
				0.999287
				0.99816
				0.998208
				0.99698
				0.997279
				0.996089
				0.996578
				0.99555
				0.996177
				0.99507
				0.995926
				0.994727
				0.995792
				0.994521
				0.99575
				0.994454
				0.995796
				0.994519
				0.995939
				0.994689
				0.996185
				0.994902
				0.99652
				0.995048
				0.996904
				0.994949
				0.99725
				0.994335
				0.997413
				0.992783
				0.997154
				0.989654
				0.99608
				0.984176
				0.993521
				0.976549
				0.988414
				0.98208
				0.979137
				1.05693
				1.00031
				1.01889
				1.05282
				0.984436
				1.00135
				0.989618
				0.982084
				0.994572
				0.989354
				0.996803
				0.99426
				0.997649
				0.996442
				0.997793
				0.997241
				0.997573
				0.997343
				0.99716
				0.997087
				0.996655
				0.996647
				0.996129
				0.996127
				0.99565
				0.995606
				0.995286
				0.995152
				0.995105
				0.994839
				0.995163
				0.994735
				0.995493
				0.994893
				0.996116
				0.995344
				0.996977
				0.996074
				0.997921
				0.997004
				0.998933
				0.99803
				0.99998
				0.999121
				1.00103
				1.00024
				1.00204
				1.00134
				1.00297
				1.00239
				1.00381
				1.00335
				1.00453
				1.00419
				1.00511
				1.0049
				1.00556
				1.00547
				1.00587
				1.00589
				1.00606
				1.00617
				1.00656
				1.00627
				1.0067
				1.00686
				1.00668
				1.00685
				1.00649
				1.0068
				1.00597
				1.00619
				1.00574
				1.00604
				1.00539
				1.00571
				1.0049
				1.00525
				1.00428
				1.00465
				1.00352
				1.0039
				1.00265
				1.00302
				1.00167
				1.00202
				1.00063
				1.00093
				0.999552
				0.999795
				0.998477
				0.998646
				0.997443
				0.997528
				0.99648
				0.996482
				0.995606
				0.995536
				0.994982
				0.994802
				0.994668
				0.994361
				0.994639
				0.994227
				0.994859
				0.994367
				0.995271
				0.994726
				0.995805
				0.995233
				0.996389
				0.995813
				0.996955
				0.996394
				0.997428
				0.996896
				0.997708
				0.997215
				0.997625
				0.997177
				0.996843
				0.996445
				0.994688
				0.994343
				0.989832
				0.989539
				0.983898
				0.981979
				1.0157
				0.998345
				1.01703
				1.01629
				0.983085
				0.990164
				0.987909
				0.988491
				0.99319
				0.994816
				0.995663
				0.997008
				0.996771
				0.997807
				0.997235
				0.998046
				0.997396
				0.998054
				0.99742
				0.997971
				0.997398
				0.997867
				0.997384
				0.99778
				0.997407
				0.99773
				0.997484
				0.997726
				0.997622
				0.997769
				0.997821
				0.997858
				0.99808
				0.997991
				0.998387
				0.998167
				0.998737
				0.998394
				0.999196
				0.998682
				0.999737
				0.99906
				1.00033
				0.999496
				1.00094
				0.999962
				1.00153
				1.00043
				1.00209
				1.00087
				1.0026
				1.00128
				1.00304
				1.00162
				1.00339
				1.00189
				1.00367
				1.0021
				1.00388
				1.00224
				1.00405
				1.00235
				1.00454
				1.00252
				1.00462
				1.00297
				1.0046
				1.00299
				1.00449
				1.00294
				1.00398
				1.00247
				1.00378
				1.00228
				1.00355
				1.00215
				1.00324
				1.00198
				1.00286
				1.00175
				1.0024
				1.00145
				1.00187
				1.00109
				1.00129
				1.00066
				1.00067
				1.0002
				1.00004
				0.999717
				0.99944
				0.999239
				0.998892
				0.998794
				0.998431
				0.998415
				0.998087
				0.998131
				0.997788
				0.997912
				0.997536
				0.997745
				0.997346
				0.997622
				0.99722
				0.997544
				0.99716
				0.997514
				0.997158
				0.997535
				0.997199
				0.997607
				0.997252
				0.99772
				0.997264
				0.997856
				0.997143
				0.997974
				0.996723
				0.998007
				0.995667
				0.99781
				0.993261
				0.99706
				0.988081
				0.994935
				0.982565
				0.988761
				1.01427
				0.988971
				0.998016
				1.01106
				0.991054
				0.991654
				0.995214
				0.990831
				0.997144
				0.995107
				0.997774
				0.997033
				0.997937
				0.997654
				0.997914
				0.997808
				0.997813
				0.997777
				0.99768
				0.997669
				0.997543
				0.997533
				0.997425
				0.9974
				0.997349
				0.997292
				0.997336
				0.997234
				0.997407
				0.997247
				0.997575
				0.997353
				0.997843
				0.997562
				0.998212
				0.997877
				0.998642
				0.998279
				0.999087
				0.99873
				0.99954
				0.999199
				0.999988
				0.999673
				1.00042
				1.00014
				1.00081
				1.00058
				1.00117
				1.00098
				1.00147
				1.00133
				1.00172
				1.00163
				1.00192
				1.00187
				1.00205
				1.00205
				1.00214
				1.00217
				1.00218
				1.00224
				1.00237
				1.00226
				1.00242
				1.00249
				1.0024
				1.00248
				1.00233
				1.00246
				1.00212
				1.00219
				1.00206
				1.00216
				1.00196
				1.00207
				1.0018
				1.00193
				1.00159
				1.00173
				1.00132
				1.00147
				1.001
				1.00115
				1.00063
				1.00078
				1.00021
				1.00036
				0.999772
				0.999909
				0.999313
				0.999432
				0.99885
				0.998948
				0.998396
				0.99847
				0.997961
				0.998012
				0.997591
				0.997609
				0.99733
				0.997298
				0.997175
				0.9971
				0.997122
				0.997011
				0.997157
				0.997017
				0.997257
				0.997099
				0.9974
				0.997232
				0.997563
				0.997393
				0.997724
				0.997558
				0.997857
				0.997698
				0.997914
				0.997765
				0.997791
				0.997652
				0.997209
				0.99708
				0.995355
				0.995232
				0.990988
				0.991014
				0.993364
				0.989585
				0.997632
				0.996405
				0.991036
				0.991881
				0.994903
				0.994957
				0.996876
				0.997424
				0.997602
				0.997981
				0.997887
				0.998127
				0.998003
				0.998153
				0.998052
				0.998145
				0.99808
				0.998133
				0.998109
				0.998131
				0.998151
				0.998143
				0.998212
				0.998174
				0.998298
				0.998224
				0.998408
				0.998292
				0.998547
				0.998381
				0.998717
				0.998495
				0.998914
				0.998637
				0.999132
				0.99881
				0.99938
				0.999007
				0.999646
				0.999226
				0.999916
				0.999455
				1.00018
				0.999681
				1.00043
				0.999895
				1.00065
				1.00009
				1.00084
				1.00026
				1.001
				1.00039
				1.00112
				1.0005
				1.00121
				1.00057
				1.00127
				1.00061
				1.00131
				1.00063
				1.00151
				1.00067
				1.00153
				1.00086
				1.00152
				1.00087
				1.00148
				1.00085
				1.00127
				1.00065
				1.00122
				1.0006
				1.00115
				1.00057
				1.00105
				1.00052
				1.00092
				1.00043
				1.00075
				1.00032
				1.00054
				1.00017
				1.00031
				0.999998
				1.00006
				0.999797
				0.99979
				0.999578
				0.999516
				0.999348
				0.99925
				0.999118
				0.999004
				0.9989
				0.998792
				0.998708
				0.998601
				0.998541
				0.998433
				0.998403
				0.998297
				0.998293
				0.998189
				0.998206
				0.998108
				0.998139
				0.998052
				0.998093
				0.998019
				0.998068
				0.998001
				0.998063
				0.997988
				0.998077
				0.997956
				0.998103
				0.997862
				0.998128
				0.997604
				0.998124
				0.996917
				0.998004
				0.995013
				0.997484
				0.990932
				0.995117
				0.994006
				0.990929
				0.99376
				0.992121
				0.996298
				0.994645
				0.997496
				0.996424
				0.997987
				0.997454
				0.998108
				0.997947
				0.998128
				0.998069
				0.998118
				0.99809
				0.998101
				0.998081
				0.998086
				0.998066
				0.998078
				0.998054
				0.998086
				0.998053
				0.998114
				0.998069
				0.99817
				0.99811
				0.99826
				0.998181
				0.998393
				0.99829
				0.998575
				0.998443
				0.998802
				0.998645
				0.999046
				0.998878
				0.999284
				0.99912
				0.999512
				0.999357
				0.999723
				0.999581
				0.999914
				0.999789
				1.00008
				0.999976
				1.00022
				1.00014
				1.00034
				1.00028
				1.00043
				1.00039
				1.00049
				1.00048
				1.00054
				1.00054
				1.00055
				1.00057
				1.00055
				1.00058
				1.0006
				1.00056
				1.00062
				1.00067
				1.00061
				1.00066
				1.00058
				1.00065
				1.00052
				1.00053
				1.00052
				1.00055
				1.0005
				1.00053
				1.00045
				1.00049
				1.00037
				1.00042
				1.00028
				1.00032
				1.00015
				1.0002
				1.00001
				1.00006
				0.999835
				0.999891
				0.999641
				0.9997
				0.999428
				0.999489
				0.999199
				0.999262
				0.998961
				0.999025
				0.998717
				0.998783
				0.998492
				0.998551
				0.998314
				0.998353
				0.998186
				0.998204
				0.998101
				0.998099
				0.998051
				0.998034
				0.998029
				0.998
				0.998029
				0.997991
				0.998044
				0.998
				0.998068
				0.998021
				0.998096
				0.998047
				0.998118
				0.998069
				0.998114
				0.998065
				0.998017
				0.997968
				0.997567
				0.997515
				0.996185
				0.996537
				0.989346
				0.992747
				0.993759
				0.992462
				0.9966
				0.995409
				0.997602
				0.997555
				0.998116
				0.998266
				0.998293
				0.998359
				0.998374
				0.998382
				0.998423
				0.998397
				0.998464
				0.998416
				0.998506
				0.998444
				0.998554
				0.998479
				0.998607
				0.998521
				0.998666
				0.998569
				0.998729
				0.998618
				0.998795
				0.998666
				0.998862
				0.99871
				0.998936
				0.998752
				0.999066
				0.998822
				0.999249
				0.998969
				0.999421
				0.999155
				0.999579
				0.999326
				0.999722
				0.999478
				0.999846
				0.999611
				0.999953
				0.999724
				1.00004
				0.999816
				1.00011
				0.999889
				1.00017
				0.999944
				1.00021
				0.999981
				1.00023
				1
				1.00024
				1.00002
				1.00024
				1.00002
				1.00029
				1.00001
				1.00031
				1.00007
				1.0003
				1.00007
				1.00028
				1.00007
				1.00022
				1.00001
				1.00023
				1.00001
				1.00021
				1.00001
				1.00019
				0.999994
				1.00014
				0.999968
				1.00009
				0.999927
				1.00001
				0.999871
				0.999922
				0.999797
				0.999815
				0.999705
				0.999692
				0.999594
				0.999553
				0.999464
				0.999401
				0.999318
				0.999239
				0.999156
				0.999069
				0.998983
				0.998945
				0.998844
				0.998867
				0.998774
				0.998796
				0.998726
				0.998728
				0.998677
				0.998662
				0.998625
				0.998602
				0.998572
				0.998549
				0.998523
				0.998503
				0.99848
				0.998464
				0.998446
				0.998426
				0.99842
				0.998381
				0.998403
				0.998308
				0.998392
				0.998143
				0.998375
				0.997657
				0.998293
				0.996448
				0.99762
				0.990187
				0.994413
				0.994994
				0.989396
				0.998324
				0.997986
				0.998235
				0.99833
				0.998363
				0.998213
				0.998416
				0.998342
				0.998455
				0.998397
				0.998494
				0.998438
				0.998536
				0.99848
				0.998581
				0.998526
				0.99863
				0.998577
				0.998679
				0.998631
				0.998727
				0.998688
				0.998772
				0.998744
				0.998807
				0.998798
				0.998826
				0.998844
				0.998815
				0.998875
				0.999046
				0.998925
				0.99931
				0.999131
				0.999504
				0.999362
				0.999645
				0.999537
				0.999748
				0.999667
				0.999823
				0.999766
				0.999878
				0.99984
				0.999918
				0.999896
				0.999947
				0.999939
				0.999969
				0.999971
				0.999984
				0.999995
				0.999993
				1.00001
				0.999998
				1.00002
				0.999998
				1.00002
				1
				1.00001
				1
				1.00005
				1
				1.00005
				1
				1.00004
				0.999996
				0.999998
				0.999993
				1.00001
				0.999986
				1.00001
				0.999975
				0.999997
				0.999958
				0.999979
				0.999936
				0.999955
				0.999906
				0.999922
				0.999866
				0.99988
				0.999812
				0.999825
				0.99974
				0.999753
				0.999642
				0.999659
				0.999508
				0.999535
				0.999326
				0.999371
				0.999079
				0.999155
				0.998863
				0.998961
				0.998862
				0.998904
				0.998834
				0.998864
				0.998793
				0.998813
				0.998745
				0.998755
				0.998694
				0.998697
				0.998644
				0.99864
				0.998597
				0.998587
				0.998552
				0.998538
				0.998512
				0.998494
				0.998476
				0.998455
				0.998442
				0.998418
				0.998396
				0.99837
				0.998282
				0.998255
				0.998161
				0.998391
				0.991326
				0.996153
			</DataArray>
			<DataArray type="Float64" Name="mach-number" Format="ascii">
				0.0175192
				0.161188
				0.170956
				0.180113
				0.265383
				0.241785
				0.331477
				0.311207
				0.381761
				0.366098
				0.423252
				0.410676
				0.459984
				0.449195
				0.494118
				0.484297
				0.526562
				0.51726
				0.557386
				0.548408
				0.586162
				0.577426
				0.612115
				0.603654
				0.634116
				0.626132
				0.650749
				0.643631
				0.660384
				0.654753
				0.661683
				0.658169
				0.65398
				0.653128
				0.637588
				0.639673
				0.61344
				0.618551
				0.582798
				0.590901
				0.547209
				0.558148
				0.50793
				0.521548
				0.465841
				0.482039
				0.421492
				0.440224
				0.375196
				0.396453
				0.32709
				0.350917
				0.277269
				0.303748
				0.225874
				0.255185
				0.173224
				0.205738
				0.12004
				0.156529
				0.0686349
				0.109553
				0.0201434
				0.0703232
				0.0236752
				0.0496021
				0.0722973
				0.0726576
				0.124497
				0.11342
				0.177773
				0.16066
				0.230481
				0.210085
				0.281957
				0.259654
				0.331903
				0.308332
				0.38019
				0.35564
				0.426737
				0.401362
				0.471414
				0.445378
				0.513917
				0.48751
				0.553698
				0.527412
				0.589867
				0.564481
				0.62114
				0.597767
				0.645925
				0.625984
				0.662883
				0.647658
				0.670998
				0.661584
				0.66991
				0.666952
				0.660306
				0.663702
				0.643599
				0.652617
				0.62152
				0.635101
				0.59558
				0.612638
				0.567007
				0.586546
				0.536701
				0.557886
				0.505291
				0.52747
				0.47303
				0.49586
				0.43953
				0.463128
				0.403416
				0.428596
				0.361856
				0.390442
				0.309863
				0.345343
				0.238867
				0.288417
				0.136084
				0.216717
				0.21482
				0.160913
				0.161291
				0.168435
				0.125813
				0.12529
				0.127689
				0.12208
				0.14708
				0.13223
				0.178393
				0.155331
				0.219214
				0.190457
				0.267165
				0.235259
				0.319735
				0.286972
				0.37431
				0.342757
				0.428193
				0.399672
				0.478654
				0.454665
				0.523025
				0.504655
				0.558912
				0.546724
				0.584464
				0.578432
				0.59865
				0.598182
				0.601407
				0.605519
				0.593541
				0.601124
				0.576164
				0.586423
				0.551015
				0.563138
				0.519856
				0.533153
				0.484198
				0.498164
				0.445289
				0.459531
				0.404145
				0.418297
				0.36162
				0.375253
				0.318477
				0.331003
				0.2755
				0.286026
				0.233635
				0.24076
				0.194183
				0.195704
				0.158825
				0.151559
				0.128337
				0.108632
				0.106618
				0.0718276
				0.107583
				0.051779
				0.131226
				0.0740557
				0.161514
				0.112447
				0.197309
				0.155039
				0.237128
				0.199383
				0.279273
				0.244615
				0.322497
				0.290055
				0.365887
				0.33523
				0.40868
				0.379716
				0.450126
				0.423041
				0.489379
				0.464609
				0.525426
				0.503635
				0.557016
				0.539075
				0.582623
				0.56956
				0.600439
				0.593371
				0.6087
				0.608579
				0.606241
				0.6134
				0.592213
				0.606343
				0.566661
				0.586682
				0.530611
				0.554864
				0.485927
				0.512502
				0.43501
				0.462058
				0.380524
				0.40646
				0.325175
				0.348775
				0.271616
				0.292018
				0.222396
				0.239071
				0.179958
				0.192716
				0.14665
				0.155731
				0.124608
				0.1307
				0.115898
				0.118813
				0.127766
				0.117772
				0.184099
				0.124516
				0.224994
				0.224965
				0.163118
				0.20432
				0.104948
				0.125029
				0.102191
				0.119705
				0.136377
				0.15006
				0.184821
				0.192484
				0.237393
				0.240135
				0.28985
				0.289132
				0.340136
				0.337118
				0.38724
				0.382716
				0.430704
				0.425184
				0.470199
				0.464043
				0.505159
				0.498678
				0.534554
				0.528077
				0.556925
				0.550839
				0.570733
				0.56552
				0.574883
				0.571131
				0.569128
				0.567474
				0.554339
				0.555001
				0.531969
				0.535348
				0.503565
				0.510009
				0.470656
				0.48034
				0.434572
				0.447558
				0.396408
				0.412725
				0.357052