<VTKFile type="UnstructuredGrid" version="0.1" byte_order="LittleEndian">
<UnstructuredGrid>
	<Piece NumberOfPoints="1088" NumberOfCells="2048">
		<CellData Scalars="density" Vectors="velocity">
			<DataArray type="Float64" Name="density" Format="ascii">
				1.06289
				1.05965
				1.05928
				1.05759
				1.05257
				1.05301
				1.04145
				1.04547
				1.02552
				1.03362
				1.005
				1.01732
				0.9805
				0.996931
				0.952804
				0.973096
				0.922794
				0.946616
				0.89142
				0.918351
				0.859694
				0.889231
				0.828744
				0.860269
				0.79996
				0.832653
				0.774984
				0.807852
				0.756048
				0.787682
				0.745573
				0.774398
				0.745558
				0.770089
				0.755912
				0.775616
				0.774847
				0.789888
				0.799828
				0.810783
				0.828698
				0.836087
				0.8597
				0.864021
				0.891454
				0.89316
				0.922852
				0.922377
				0.952949
				0.950753
				0.980971
				0.977512
				1.00623
				1.002
				1.02817
				1.02366
				1.04629
				1.04202
				1.06022
				1.0567
				1.06967
				1.0674
				1.07444
				1.07391
				1.07444
				1.07609
				1.06967
				1.07391
				1.06022
				1.0674
				1.04629
				1.0567
				1.02817
				1.04202
				1.00624
				1.02366
				0.980971
				1.002
				0.95295
				0.977512
				0.922852
				0.950754
				0.891454
				0.922377
				0.8597
				0.89316
				0.828698
				0.864021
				0.799828
				0.836088
				0.774847
				0.810783
				0.755913
				0.789888
				0.745558
				0.775616
				0.745574
				0.770089
				0.756048
				0.774399
				0.774984
				0.787682
				0.79996
				0.807852
				0.828744
				0.832653
				0.859694
				0.860269
				0.891421
				0.889231
				0.922794
				0.918351
				0.952805
				0.946616
				0.9805
				0.973096
				1.005
				0.996931
				1.02552
				1.01732
				1.04145
				1.03362
				1.05257
				1.04547
				1.05928
				1.05301
				1.06289
				1.05759
				1.0571
				1.06406
				1.05413
				1.06255
				1.04968
				1.05849
				1.04211
				1.05117
				1.0309
				1.04019
				1.01631
				1.02571
				0.998792
				1.00806
				0.978922
				0.987676
				0.957313
				0.965109
				0.934625
				0.940974
				0.911603
				0.915977
				0.88913
				0.890949
				0.868294
				0.866911
				0.85045
				0.845132
				0.837214
				0.827213
				0.830252
				0.815057
				0.830675
				0.810454
				0.838412
				0.814181
				0.852248
				0.825497
				0.870505
				0.842684
				0.891586
				0.863882
				0.914179
				0.887493
				0.937236
				0.912237
				0.959923
				0.937097
				0.981564
				0.961247
				1.0016
				0.984011
				1.01958
				1.00482
				1.03512
				1.02321
				1.04791
				1.03878
				1.05772
				1.05121
				1.06435
				1.06027
				1.0677
				1.06577
				1.0677
				1.06761
				1.06435
				1.06577
				1.05772
				1.06027
				1.04791
				1.05121
				1.03512
				1.03878
				1.01958
				1.02321
				1.0016
				1.00482
				0.981564
				0.984012
				0.959923
				0.961247
				0.937237
				0.937097
				0.91418
				0.912237
				0.891587
				0.887493
				0.870505
				0.863883
				0.852248
				0.842684
				0.838412
				0.825497
				0.830675
				0.814182
				0.830252
				0.810455
				0.837214
				0.815057
				0.85045
				0.827213
				0.868294
				0.845132
				0.88913
				0.866911
				0.911604
				0.89095
				0.934625
				0.915977
				0.957313
				0.940974
				0.978922
				0.965109
				0.998792
				0.987676
				1.01631
				1.00806
				1.0309
				1.02571
				1.04211
				1.04019
				1.04968
				1.05117
				1.05413
				1.05849
				1.0571
				1.06255
				1.05673
				1.05165
				1.0545
				1.05005
				1.04975
				1.04702
				1.04214
				1.0421
				1.03209
				1.03439
				1.01979
				1.02422
				1.00543
				1.01196
				0.989249
				0.997942
				0.971605
				0.982489
				0.952954
				0.965985
				0.933884
				0.948913
				0.915143
				0.931887
				0.897667
				0.915688
				0.882604
				0.901274
				0.871286
				0.889767
				0.865026
				0.882326
				0.864698
				0.879887
				0.870321
				0.882809
				0.881076
				0.890697
				0.8957
				0.902596
				0.912892
				0.917338
				0.931511
				0.933817
				0.950625
				0.951096
				0.969481
				0.968416
				0.98748
				0.985169
				1.00414
				1.00087
				1.01906
				1.01514
				1.03193
				1.02767
				1.04251
				1.03821
				1.05061
				1.0466
				1.05608
				1.05268
				1.05884
				1.05636
				1.05884
				1.0576
				1.05608
				1.05636
				1.05061
				1.05268
				1.04251
				1.0466
				1.03193
				1.03821
				1.01906
				1.02767
				1.00414
				1.01514
				0.98748
				1.00087
				0.969482
				0.985169
				0.950625
				0.968416
				0.931511
				0.951097
				0.912891
				0.933817
				0.8957
				0.917337
				0.881076
				0.902596
				0.870321
				0.890697
				0.864698
				0.882809
				0.865026
				0.879887
				0.871286
				0.882326
				0.882605
				0.889767
				0.897667
				0.901274
				0.915143
				0.915688
				0.933884
				0.931888
				0.952954
				0.948913
				0.971605
				0.965985
				0.989249
				0.982489
				1.00543
				0.997942
				1.01979
				1.01196
				1.03209
				1.02422
				1.04214
				1.03439
				1.04975
				1.0421
				1.0545
				1.04702
				1.05673
				1.05005
				1.04202
				1.04673
				1.0401
				1.04609
				1.03714
				1.04367
				1.03216
				1.03881
				1.0254
				1.03214
				1.01722
				1.02391
				1.0078
				1.01418
				0.997269
				1.00306
				0.98584
				0.990721
				0.973804
				0.977466
				0.961575
				0.96369
				0.949684
				0.949908
				0.938785
				0.93677
				0.929622
				0.925058
				0.922974
				0.915665
				0.919516
				0.909483
				0.919652
				0.907202
				0.923381
				0.909097
				0.930292
				0.914922
				0.939705
				0.924018
				0.950846
				0.935526
				0.962974
				0.948573
				0.97545
				0.962381
				0.987749
				0.976299
				0.999453
				0.9898
				1.01024
				1.00247
				1.01985
				1.01398
				1.02809
				1.02407
				1.03484
				1.03256
				1.03997
				1.03929
				1.04343
				1.04417
				1.04517
				1.04713
				1.04517
				1.04812
				1.04343
				1.04713
				1.03997
				1.04417
				1.03484
				1.03929
				1.02809
				1.03256
				1.01985
				1.02407
				1.01024
				1.01398
				0.999453
				1.00247
				0.987749
				0.9898
				0.97545
				0.976299
				0.962974
				0.962381
				0.950846
				0.948573
				0.939706
				0.935526
				0.930292
				0.924018
				0.923381
				0.914922
				0.919652
				0.909097
				0.919516
				0.907202
				0.922974
				0.909483
				0.929622
				0.915666
				0.938785
				0.925059
				0.949684
				0.93677
				0.961575
				0.949909
				0.973804
				0.96369
				0.98584
				0.977466
				0.997269
				0.990721
				1.0078
				1.00306
				1.01722
				1.01419
				1.0254
				1.02391
				1.03216
				1.03214
				1.03714
				1.03881
				1.0401
				1.04367
				1.04202
				1.04609
				1.03526
				1.03184
				1.03463
				1.03104
				1.03204
				1.02946
				1.02787
				1.02664
				1.02265
				1.02244
				1.01635
				1.01727
				1.00901
				1.01122
				1.00074
				1.00435
				0.991741
				0.99676
				0.98226
				0.988641
				0.972633
				0.980259
				0.963285
				0.971959
				0.954725
				0.964161
				0.947527
				0.957344
				0.942275
				0.95201
				0.939459
				0.948616
				0.939371
				0.947496
				0.942019
				0.948772
				0.947128
				0.952324
				0.954225
				0.957821
				0.962739
				0.964803
				0.972104
				0.972767
				0.981807
				0.981234
				0.991417
				0.989788
				1.00059
				0.998084
				1.00904
				1.00585
				1.01658
				1.01288
				1.02304
				1.01903
				1.02832
				1.02417
				1.03234
				1.02824
				1.03504
				1.03117
				1.0364
				1.03294
				1.0364
				1.03354
				1.03504
				1.03294
				1.03234
				1.03117
				1.02832
				1.02824
				1.02304
				1.02417
				1.01658
				1.01903
				1.00904
				1.01288
				1.00059
				1.00585
				0.991417
				0.998084
				0.981807
				0.989788
				0.972104
				0.981234
				0.962739
				0.972767
				0.954225
				0.964803
				0.947128
				0.957822
				0.942019
				0.952324
				0.939371
				0.948772
				0.939459
				0.947496
				0.942275
				0.948616
				0.947527
				0.95201
				0.954725
				0.957344
				0.963285
				0.964162
				0.972633
				0.971959
				0.98226
				0.980259
				0.991741
				0.988641
				1.00074
				0.99676
				1.00901
				1.00435
				1.01635
				1.01122
				1.02265
				1.01727
				1.02787
				1.02244
				1.03204
				1.02664
				1.03463
				1.02946
				1.03526
				1.03104
				1.02204
				1.02476
				1.02132
				1.02494
				1.02
				1.02411
				1.01765
				1.02172
				1.01457
				1.01861
				1.01089
				1.01475
				1.00659
				1.01013
				1.00176
				1.00484
				0.99651
				0.998998
				0.991007
				0.992759
				0.985465
				0.986333
				0.980144
				0.979984
				0.975339
				0.974031
				0.971367
				0.968835
				0.968529
				0.964767
				0.967066
				0.962158
				0.967114
				0.961244
				0.968674
				0.962112
				0.971612
				0.964682
				0.975686
				0.968726
				0.980594
				0.973917
				0.986016
				0.979889
				0.991654
				0.986281
				0.997248
				0.992771
				1.00258
				0.999086
				1.0075
				1.00501
				1.01187
				1.01038
				1.0156
				1.01507
				1.01865
				1.01899
				1.02095
				1.02209
				1.0225
				1.02433
				1.02328
				1.02568
				1.02328
				1.02613
				1.0225
				1.02568
				1.02095
				1.02433
				1.01865
				1.02209
				1.0156
				1.01899
				1.01187
				1.01507
				1.0075
				1.01038
				1.00258
				1.00501
				0.997248
				0.999086
				0.991654
				0.992771
				0.986016
				0.986281
				0.980594
				0.979889
				0.975686
				0.973917
				0.971612
				0.968726
				0.968674
				0.964682
				0.967114
				0.962112
				0.967066
				0.961244
				0.968529
				0.962158
				0.971368
				0.964767
				0.975339
				0.968835
				0.980144
				0.974031
				0.985465
				0.979984
				0.991007
				0.986333
				0.99651
				0.992759
				1.00176
				0.998998
				1.00659
				1.00484
				1.01089
				1.01013
				1.01457
				1.01475
				1.01765
				1.01861
				1.02
				1.02172
				1.02132
				1.02411
				1.02204
				1.02494
				1.01643
				1.01448
				1.01667
				1.01429
				1.01559
				1.01382
				1.01381
				1.01269
				1.0116
				1.01099
				1.00884
				1.00886
				1.00561
				1.0063
				1.00199
				1.00336
				0.998054
				1.0001
				0.993939
				0.996632
				0.989803
				0.99308
				0.985837
				0.989599
				0.982264
				0.986366
				0.979314
				0.983576
				0.977204
				0.981419
				0.976104
				0.980062
				0.97611
				0.979617
				0.977223
				0.980124
				0.979348
				0.981544
				0.982318
				0.983763
				0.985917
				0.986616
				0.989913
				0.989909
				0.994084
				0.993444
				0.998236
				0.997042
				1.0022
				1.00055
				1.00586
				1.00384
				1.00912
				1.00681
				1.0119
				1.00941
				1.01417
				1.01157
				1.01589
				1.01328
				1.01704
				1.01451
				1.01762
				1.01525
				1.01762
				1.0155
				1.01704
				1.01525
				1.01589
				1.01451
				1.01417
				1.01328
				1.0119
				1.01157
				1.00912
				1.00941
				1.00586
				1.00681
				1.0022
				1.00384
				0.998236
				1.00055
				0.994084
				0.997042
				0.989913
				0.993444
				0.985917
				0.989909
				0.982318
				0.986616
				0.979349
				0.983763
				0.977223
				0.981544
				0.97611
				0.980124
				0.976104
				0.979617
				0.977204
				0.980062
				0.979314
				0.981419
				0.982264
				0.983576
				0.985837
				0.986366
				0.989803
				0.989599
				0.993939
				0.99308
				0.998054
				0.996632
				1.00199
				1.0001
				1.00561
				1.00336
				1.00884
				1.0063
				1.0116
				1.00886
				1.01381
				1.01099
				1.01559
				1.01269
				1.01667
				1.01382
				1.01643
				1.01429
				1.00894
				1.01013
				1.00888
				1.01057
				1.00851
				1.01048
				1.00765
				1.00952
				1.00648
				1.00832
				1.00503
				1.00676
				1.0033
				1.00488
				1.00136
				1.00272
				0.999261
				1.00034
				0.99707
				0.997801
				0.994879
				0.995207
				0.992791
				0.992667
				0.990923
				0.990311
				0.989393
				0.988282
				0.98831
				0.986716
				0.987756
				0.98573
				0.987777
				0.985403
				0.988373
				0.985762
				0.989497
				0.986779
				0.991067
				0.988375
				0.992972
				0.990433
				0.995092
				0.992815
				0.997311
				0.99538
				0.999522
				0.997995
				1.00164
				1.00055
				1.00359
				1.00294
				1.00532
				1.00512
				1.0068
				1.00701
				1.008
				1.00859
				1.00891
				1.00984
				1.00952
				1.01073
				1.00983
				1.01127
				1.00983
				1.01145
				1.00952
				1.01127
				1.00891
				1.01073
				1.008
				1.00984
				1.0068
				1.00859
				1.00532
				1.00701
				1.00359
				1.00512
				1.00164
				1.00294
				0.999522
				1.00055
				0.997311
				0.997995
				0.995092
				0.995379
				0.992972
				0.992815
				0.991067
				0.990433
				0.989498
				0.988375
				0.988373
				0.986779
				0.987777
				0.985762
				0.987756
				0.985403
				0.98831
				0.98573
				0.989393
				0.986716
				0.990923
				0.988282
				0.992791
				0.990311
				0.994879
				0.992667
				0.99707
				0.995207
				0.999261
				0.997801
				1.00136
				1.00034
				1.0033
				1.00272
				1.00503
				1.00488
				1.00648
				1.00676
				1.00765
				1.00832
				1.00851
				1.00952
				1.00888
				1.01048
				1.00894
				1.01057
				1.00613
				1.00525
				1.00658
				1.00534
				1.00623
				1.00536
				1.00558
				1.00503
				1.00475
				1.00442
				1.0037
				1.00362
				1.00246
				1.00265
				1.00107
				1.00153
				0.999558
				1.0003
				0.997987
				0.998996
				0.996417
				0.997665
				0.994923
				0.996366
				0.993588
				0.995167
				0.992498
				0.994138
				0.991727
				0.993349
				0.991335
				0.992855
				0.991351
				0.992696
				0.991777
				0.992885
				0.992578
				0.993407
				0.993697
				0.994224
				0.995057
				0.995277
				0.996572
				0.996499
				0.998159
				0.997817
				0.999742
				0.999164
				1.00126
				1.00048
				1.00266
				1.00171
				1.0039
				1.00283
				1.00496
				1.00381
				1.00582
				1.00462
				1.00647
				1.00526
				1.00691
				1.00572
				1.00713
				1.006
				1.00713
				1.00609
				1.00691
				1.006
				1.00647
				1.00572
				1.00582
				1.00526
				1.00496
				1.00462
				1.0039
				1.00381
				1.00266
				1.00283
				1.00126
				1.00171
				0.999742
				1.00048
				0.998159
				0.999164
				0.996572
				0.997817
				0.995057
				0.996499
				0.993697
				0.995277
				0.992578
				0.994224
				0.991777
				0.993407
				0.991351
				0.992885
				0.991335
				0.992696
				0.991727
				0.992855
				0.992498
				0.993349
				0.993588
				0.994138
				0.994923
				0.995167
				0.996417
				0.996366
				0.997987
				0.997665
				0.999558
				0.998996
				1.00107
				1.0003
				1.00246
				1.00153
				1.0037
				1.00265
				1.00475
				1.00362
				1.00558
				1.00442
				1.00623
				1.00503
				1.00658
				1.00536
				1.00613
				1.00534
				1.00297
				1.00334
				1.00317
				1.00375
				1.00315
				1.00392
				1.00286
				1.00358
				1.00244
				1.00315
				1.00191
				1.00258
				1.00128
				1.00189
				1.00059
				1.0011
				0.999833
				1.00023
				0.999049
				0.999312
				0.998267
				0.998372
				0.997524
				0.997456
				0.996862
				0.996612
				0.996323
				0.995889
				0.995943
				0.995336
				0.995751
				0.994993
				0.995762
				0.994885
				0.995976
				0.995021
				0.996376
				0.995393
				0.996934
				0.995971
				0.997614
				0.996716
				0.998372
				0.99758
				0.999166
				0.998512
				0.99996
				0.999464
				1.00072
				1.00039
				1.00142
				1.00127
				1.00204
				1.00206
				1.00258
				1.00275
				1.00301
				1.00332
				1.00334
				1.00378
				1.00355
				1.0041
				1.00366
				1.0043
				1.00366
				1.00436
				1.00355
				1.0043
				1.00334
				1.0041
				1.00301
				1.00378
				1.00258
				1.00332
				1.00204
				1.00275
				1.00142
				1.00206
				1.00072
				1.00127
				0.99996
				1.00039
				0.999166
				0.999464
				0.998372
				0.998512
				0.997614
				0.99758
				0.996934
				0.996716
				0.996376
				0.995971
				0.995976
				0.995393
				0.995762
				0.995021
				0.995751
				0.994885
				0.995943
				0.994993
				0.996323
				0.995336
				0.996862
				0.995889
				0.997524
				0.996612
				0.998267
				0.997456
				0.999049
				0.998373
				0.999833
				0.999312
				1.00059
				1.00023
				1.00128
				1.0011
				1.00191
				1.00189
				1.00244
				1.00258
				1.00286
				1.00315
				1.00315
				1.00358
				1.00317
				1.00392
				1.00297
				1.00375
				1.00187
				1.00153
				1.00231
				1.00171
				1.00223
				1.00189
				1.002
				1.00179
				1.0017
				1.00157
				1.00133
				1.00128
				1.00089
				1.00095
				1.00041
				1.00056
				0.999882
				1.00014
				0.999335
				0.999687
				0.99879
				0.99923
				0.998273
				0.998784
				0.997814
				0.998374
				0.99744
				0.998023
				0.997179
				0.997755
				0.997049
				0.99759
				0.997061
				0.997539
				0.997214
				0.997607
				0.997497
				0.997789
				0.997889
				0.998072
				0.998366
				0.998437
				0.998898
				0.99886
				0.999455
				0.999318
				1.00001
				0.999785
				1.00054
				1.00024
				1.00103
				1.00067
				1.00147
				1.00106
				1.00184
				1.0014
				1.00215
				1.00168
				1.00237
				1.0019
				1.00253
				1.00206
				1.0026
				1.00216
				1.0026
				1.00219
				1.00253
				1.00216
				1.00237
				1.00206
				1.00215
				1.0019
				1.00184
				1.00168
				1.00147
				1.0014
				1.00103
				1.00106
				1.00054
				1.00067
				1.00001
				1.00024
				0.999455
				0.999785
				0.998898
				0.999318
				0.998366
				0.998861
				0.997889
				0.998437
				0.997497
				0.998072
				0.997214
				0.997789
				0.997061
				0.997607
				0.997049
				0.997539
				0.997179
				0.99759
				0.99744
				0.997755
				0.997814
				0.998023
				0.998273
				0.998374
				0.99879
				0.998784
				0.999335
				0.99923
				0.999882
				0.999687
				1.00041
				1.00014
				1.00089
				1.00056
				1.00133
				1.00095
				1.0017
				1.00128
				1.002
				1.00157
				1.00223
				1.00179
				1.00231
				1.00189
				1.00187
				1.00171
				1.00078
				1.00082
				1.00104
				1.00116
				1.00109
				1.00137
				1.00097
				1.00123
				1.00082
				1.00108
				1.00064
				1.00088
				1.00044
				1.00065
				1.0002
				1.00038
				0.999953
				1.00009
				0.999692
				0.999777
				0.999431
				0.999461
				0.999185
				0.999154
				0.998966
				0.998872
				0.998788
				0.998631
				0.998665
				0.998448
				0.998604
				0.998337
				0.998612
				0.998306
				0.998687
				0.998356
				0.998825
				0.998486
				0.999016
				0.998686
				0.999247
				0.998942
				0.999505
				0.999239
				0.999776
				0.999558
				1.00005
				0.999885
				1.0003
				1.0002
				1.00054
				1.0005
				1.00075
				1.00077
				1.00094
				1.00101
				1.00108
				1.00121
				1.00119
				1.00136
				1.00127
				1.00147
				1.0013
				1.00154
				1.0013
				1.00156
				1.00127
				1.00154
				1.00119
				1.00147
				1.00108
				1.00136
				1.00094
				1.00121
				1.00075
				1.00101
				1.00054
				1.00077
				1.0003
				1.0005
				1.00005
				1.0002
				0.999776
				0.999885
				0.999505
				0.999558
				0.999247
				0.999239
				0.999016
				0.998942
				0.998825
				0.998686
				0.998687
				0.998486
				0.998612
				0.998356
				0.998604
				0.998306
				0.998665
				0.998337
				0.998788
				0.998448
				0.998966
				0.998631
				0.999185
				0.998872
				0.999431
				0.999154
				0.999692
				0.999461
				0.999953
				0.999777
				1.0002
				1.00009
				1.00044
				1.00038
				1.00064
				1.00065
				1.00082
				1.00088
				1.00097
				1.00108
				1.00109
				1.00123
				1.00104
				1.00137
				1.00078
				1.00116
				1.00042
				1.0003
				1.00077
				1.00048
				1.00076
				1.00064
				1.00066
				1.00059
				1.00056
				1.00051
				1.00043
				1.00042
				1.00029
				1.0003
				1.00013
				1.00018
				0.999958
				1.00004
				0.999779
				0.999894
				0.999601
				0.999746
				0.999432
				0.999603
				0.999284
				0.999471
				0.999164
				0.999359
				0.999082
				0.999275
				0.999043
				0.999225
				0.999052
				0.999212
				0.999107
				0.999238
				0.999205
				0.999302
				0.999339
				0.999399
				0.9995
				0.999522
				0.99968
				0.999665
				0.999868
				0.999818
				1.00006
				0.999975
				1.00024
				1.00013
				1.0004
				1.00027
				1.00055
				1.0004
				1.00067
				1.00051
				1.00077
				1.00061
				1.00085
				1.00068
				1.0009
				1.00074
				1.00093
				1.00077
				1.00093
				1.00078
				1.0009
				1.00077
				1.00085
				1.00074
				1.00077
				1.00068
				1.00067
				1.00061
				1.00055
				1.00051
				1.0004
				1.0004
				1.00024
				1.00027
				1.00006
				1.00013
				0.999868
				0.999975
				0.99968
				0.999818
				0.9995
				0.999665
				0.999339
				0.999522
				0.999205
				0.999399
				0.999107
				0.999302
				0.999052
				0.999238
				0.999043
				0.999212
				0.999082
				0.999225
				0.999164
				0.999275
				0.999284
				0.999359
				0.999432
				0.999471
				0.999601
				0.999603
				0.999779
				0.999746
				0.999958
				0.999894
				1.00013
				1.00004
				1.00029
				1.00018
				1.00043
				1.0003
				1.00056
				1.00042
				1.00066
				1.00051
				1.00076
				1.00059
				1.00077
				1.00064
				1.00042
				1.00048
				1.00011
				1.00004
				1.00032
				1.00031
				1.00034
				1.00046
				1.0003
				1.00039
				1.00025
				1.00034
				1.0002
				1.00028
				1.00013
				1.0002
				1.00006
				1.00012
				0.99998
				1.00002
				0.999896
				0.999921
				0.999812
				0.999818
				0.999733
				0.999719
				0.999663
				0.999629
				0.999607
				0.999553
				0.99957
				0.999497
				0.999555
				0.999465
				0.999563
				0.999459
				0.999593
				0.999482
				0.999645
				0.999531
				0.999714
				0.999602
				0.999797
				0.999693
				0.999888
				0.999796
				0.999983
				0.999908
				1.00008
				1.00002
				1.00017
				1.00013
				1.00025
				1.00023
				1.00032
				1.00033
				1.00039
				1.00041
				1.00044
				1.00048
				1.00048
				1.00053
				1.0005
				1.00057
				1.00051
				1.00059
				1.00051
				1.0006
				1.0005
				1.00059
				1.00048
				1.00057
				1.00044
				1.00053
				1.00039
				1.00048
				1.00032
				1.00041
				1.00025
				1.00033
				1.00017
				1.00023
				1.00008
				1.00013
				0.999983
				1.00002
				0.999888
				0.999908
				0.999797
				0.999796
				0.999714
				0.999693
				0.999645
				0.999602
				0.999593
				0.999531
				0.999563
				0.999482
				0.999555
				0.999459
				0.99957
				0.999465
				0.999607
				0.999497
				0.999663
				0.999553
				0.999733
				0.999629
				0.999812
				0.999719
				0.999896
				0.999818
				0.99998
				0.999921
				1.00006
				1.00002
				1.00013
				1.00012
				1.0002
				1.0002
				1.00025
				1.00028
				1.0003
				1.00034
				1.00034
				1.00039
				1.00032
				1.00046
				1.00011
				1.00031
				1.00003
				0.999944
				1.00026
				1.00009
				1.00025
				1.00021
				1.00021
				1.0002
				1.00018
				1.00017
				1.00014
				1.00014
				1.00008
				1.00011
				1.00003
				1.00006
				0.999969
				1.00001
				0.999909
				0.999958
				0.999851
				0.999907
				0.999799
				0.999859
				0.999754
				0.999817
				0.99972
				0.999783
				0.9997
				0.999759
				0.999694
				0.999748
				0.999704
				0.999749
				0.999728
				0.999763
				0.999766
				0.999789
				0.999815
				0.999825
				0.999872
				0.999869
				0.999934
				0.999919
				0.999998
				0.999972
				1.00006
				1.00003
				1.00012
				1.00008
				1.00018
				1.00013
				1.00022
				1.00017
				1.00027
				1.00021
				1.0003
				1.00024
				1.00032
				1.00026
				1.00034
				1.00028
				1.00035
				1.00029
				1.00035
				1.0003
				1.00034
				1.00029
				1.00032
				1.00028
				1.0003
				1.00026
				1.00027
				1.00024
				1.00022
				1.00021
				1.00018
				1.00017
				1.00012
				1.00013
				1.00006
				1.00008
				0.999998
				1.00003
				0.999934
				0.999972
				0.999872
				0.999919
				0.999815
				0.999869
				0.999766
				0.999825
				0.999728
				0.999789
				0.999704
				0.999763
				0.999694
				0.999749
				0.9997
				0.999748
				0.99972
				0.999759
				0.999754
				0.999783
				0.999799
				0.999817
				0.999851
				0.999859
				0.999909
				0.999907
				0.999969
				0.999958
				1.00003
				1.00001
				1.00008
				1.00006
				1.00014
				1.00011
				1.00018
				1.00014
				1.00021
				1.00017
				1.00025
				1.0002
				1.00026
				1.00021
				1.00003
				1.00009
				0.999956
				0.9999
				1.00013
				1.00006
				1.00015
				1.00015
				1.00012
				1.0001
				1.00009
				1.00008
				1.00006
				1.00006
				1.00001
				1.00003
				0.999969
				0.999996
				0.999923
				0.999957
				0.999879
				0.999917
				0.999839
				0.999877
				0.999806
				0.99984
				0.999781
				0.999809
				0.999767
				0.999786
				0.999765
				0.999772
				0.999775
				0.999771
				0.999797
				0.999781
				0.99983
				0.999804
				0.999872
				0.999838
				0.999921
				0.999881
				0.999973
				0.999931
				1.00003
				0.999986
				1.00008
				1.00004
				1.00013
				1.0001
				1.00018
				1.00015
				1.00022
				1.0002
				1.00025
				1.00024
				1.00028
				1.00028
				1.00031
				1.00031
				1.00033
				1.00033
				1.00034
				1.00035
				1.00034
				1.00036
				1.00034
				1.00036
				1.00034
				1.00036
				1.00033
				1.00035
				1.00031
				1.00033
				1.00028
				1.00031
				1.00025
				1.00028
				1.00022
				1.00024
				1.00018
				1.0002
				1.00013
				1.00015
				1.00008
				1.0001
				1.00003
				1.00004
				0.999973
				0.999986
				0.999921
				0.999931
				0.999872
				0.999881
				0.99983
				0.999838
				0.999797
				0.999804
				0.999775
				0.999781
				0.999765
				0.999771
				0.999767
				0.999772
				0.999781
				0.999786
				0.999806
				0.999809
				0.999839
				0.99984
				0.999879
				0.999877
				0.999923
				0.999917
				0.999969
				0.999957
				1.00001
				0.999996
				1.00006
				1.00003
				1.00009
				1.00006
				1.00012
				1.00008
				1.00015
				1.0001
				1.00013
				1.00015
				0.999956
				1.00006
			</DataArray>
			<DataArray type="Float64" Name="mach-number" Format="ascii">
				0.0283761
				0.0315115
				0.0743416
				0.0587468
				0.132136
				0.109647
				0.196451
				0.169186
				0.264321
				0.23318
				0.333703
				0.299199
				0.403241
				0.365664
				0.47204
				0.43155
				0.539463
				0.496137
				0.604909
				0.558851
				0.667641
				0.619028
				0.726616
				0.675819
				0.780185
				0.72798
				0.826008
				0.773658
				0.860524
				0.810287
				0.879583
				0.834384
				0.879773
				0.84265
				0.86138
				0.8337
				0.827739
				0.809376
				0.783235
				0.773112
				0.731358
				0.728379
				0.674607
				0.677739
				0.61467
				0.623045
				0.552649
				0.565554
				0.489305
				0.506132
				0.425124
				0.445411
				0.360444
				0.383828
				0.295506
				0.321744
				0.230495
				0.259498
				0.165632
				0.197523
				0.101429
				0.136743
				0.0413715
				0.0804782
				0.0413715
				0.048969
				0.101429
				0.0804781
				0.165631
				0.136743
				0.230495
				0.197523
				0.295506
				0.259498
				0.360444
				0.321744
				0.425124
				0.383827
				0.489305
				0.445411
				0.552649
				0.506132
				0.61467
				0.565554
				0.674607
				0.623045
				0.731358
				0.677739
				0.783235
				0.728378
				0.827739
				0.773112
				0.861379
				0.809375
				0.879773
				0.8337
				0.879583
				0.84265
				0.860524
				0.834384
				0.826007
				0.810287
				0.780185
				0.773657
				0.726616
				0.72798
				0.667641
				0.675819
				0.604909
				0.619028
				0.539463
				0.55885
				0.47204
				0.496137
				0.403241
				0.431549
				0.333702
				0.365664
				0.26432
				0.299199
				0.196451
				0.233179
				0.132136
				0.169186
				0.0743415
				0.109647
				0.0283761
				0.0587467
				0.0927822
				0.0674254
				0.1293
				0.0897765
				0.176477
				0.136258
				0.226439
				0.18917
				0.277664
				0.244685
				0.329319
				0.301199
				0.380956
				0.357745
				0.432213
				0.413759
				0.482689
				0.468827
				0.531855
				0.522531
				0.578992
				0.574327
				0.623107
				0.623452
				0.6628
				0.668779
				0.696173
				0.708675
				0.720774
				0.740859
				0.733962
				0.762399
				0.733864
				0.770436
				0.720517
				0.763667
				0.695811
				0.743264
				0.662381
				0.711958
				0.622634
				0.67264
				0.578441
				0.627647
				0.531183
				0.578704
				0.481867
				0.527044
				0.431262
				0.473562
				0.379997
				0.418931
				0.328674
				0.363703
				0.277992
				0.308411
				0.228979
				0.253712
				0.183478
				0.20067
				0.145244
				0.151539
				0.121638
				0.11202
				0.121638
				0.0952446
				0.145244
				0.11202
				0.183478
				0.151539
				0.228979
				0.20067
				0.277992
				0.253712
				0.328674
				0.308412
				0.379997
				0.363702
				0.431262
				0.41893
				0.481867
				0.473562
				0.531183
				0.527044
				0.578441
				0.578703
				0.622633
				0.627646
				0.662381
				0.672639
				0.695811
				0.711958
				0.720516
				0.743264
				0.733864
				0.763667
				0.733962
				0.770436
				0.720774
				0.762399
				0.696173
				0.740858
				0.6628
				0.708675
				0.623106
				0.668779
				0.578991
				0.623452
				0.531854
				0.574327
				0.482689
				0.52253
				0.432213
				0.468827
				0.380955
				0.413759
				0.329319
				0.357745
				0.277663
				0.301199
				0.226439
				0.244684
				0.176476
				0.189169
				0.1293
				0.136257
				0.0927821
				0.0897764
				0.132517
				0.147659
				0.165679
				0.166966
				0.205521
				0.202757
				0.24511
				0.23763
				0.285262
				0.272377
				0.326205
				0.308069
				0.368008
				0.3451
				0.410439
				0.383377
				0.453013
				0.422435
				0.495048
				0.461578
				0.535682
				0.499945
				0.573839
				0.536516
				0.608154
				0.570067
				0.636917
				0.599114
				0.658082
				0.621913
				0.669582
				0.636617
				0.670007
				0.641709
				0.659305
				0.63659
				0.638778
				0.621876
				0.610419
				0.59908
				0.576226
				0.570022
				0.537884
				0.536382
				0.496711
				0.499555
				0.453738
				0.460653
				0.409795
				0.420583
				0.365624
				0.380135
				0.321978
				0.340075
				0.279767
				0.30126
				0.240267
				0.264781
				0.205447
				0.232154
				0.178361
				0.205526
				0.163099
				0.187674
				0.163099
				0.181321
				0.178361
				0.187674
				0.205446
				0.205526
				0.240267
				0.232154
				0.279767
				0.264781