<VTKFile type="UnstructuredGrid" version="0.1" byte_order="LittleEndian">
<UnstructuredGrid>
	<Piece NumberOfPoints="1088" NumberOfCells="2048">
		<CellData Scalars="density" Vectors="velocity">
			<DataArray type="Float64" Name="density" Format="ascii">
				1.41
				1.43579
				1.3627
				1.40908
				1.28403
				1.35941
				1.18312
				1.277
				1.07762
				1.17355
				0.977999
				1.06713
				0.888512
				0.967767
				0.810299
				0.879311
				0.743114
				0.802617
				0.686245
				0.73728
				0.638901
				0.682501
				0.600419
				0.637465
				0.570352
				0.601507
				0.548412
				0.574143
				0.534472
				0.55503
				0.528367
				0.543877
				0.529871
				0.540342
				0.538646
				0.543996
				0.554167
				0.554506
				0.574486
				0.571496
				0.598264
				0.592344
				0.62476
				0.616038
				0.65354
				0.64201
				0.684451
				0.669932
				0.717562
				0.699714
				0.753226
				0.731474
				0.792029
				0.765555
				0.834667
				0.802492
				0.881537
				0.842857
				0.931499
				0.886904
				0.977688
				0.933588
				0.993221
				0.977229
				0.993221
				0.994028
				0.977679
				0.97722
				0.931491
				0.933581
				0.881529
				0.886896
				0.834658
				0.842849
				0.792023
				0.802487
				0.75322
				0.76555
				0.717557
				0.731469
				0.684446
				0.699709
				0.653536
				0.669928
				0.624756
				0.642006
				0.598264
				0.616038
				0.574483
				0.59234
				0.554164
				0.571493
				0.538645
				0.554504
				0.529872
				0.543996
				0.52837
				0.540344
				0.534477
				0.543881
				0.548419
				0.555036
				0.57036
				0.574151
				0.60043
				0.601516
				0.638914
				0.637476
				0.686259
				0.682515
				0.74313
				0.737296
				0.810317
				0.802634
				0.88853
				0.879329
				0.978014
				0.967782
				1.07762
				1.06714
				1.1831
				1.17354
				1.28398
				1.27696
				1.36272
				1.3594
				1.43666
				1.41194
				1.42237
				1.43112
				1.31567
				1.4194
				1.17866
				1.31197
				1.06096
				1.17144
				0.974328
				1.05238
				0.914358
				0.96562
				0.873682
				0.905539
				0.846017
				0.864246
				0.826694
				0.835377
				0.812454
				0.814403
				0.801245
				0.798325
				0.792096
				0.785436
				0.784973
				0.775144
				0.780527
				0.767769
				0.779705
				0.764201
				0.783302
				0.765416
				0.791602
				0.771994
				0.804284
				0.783824
				0.821596
				0.800261
				0.842398
				0.81971
				0.865987
				0.842314
				0.891601
				0.867215
				0.918419
				0.893495
				0.94566
				0.920302
				0.972609
				0.946876
				0.998614
				0.972559
				1.02305
				0.99676
				1.04523
				1.0189
				1.06423
				1.03832
				1.07848
				1.05404
				1.08504
				1.06409
				1.09287
				1.0648
				1.09287
				1.03431
				1.08504
				1.0648
				1.07848
				1.06409
				1.06423
				1.05403
				1.04523
				1.03832
				1.02305
				1.0189
				0.99861
				0.996755
				0.972605
				0.972554
				0.945656
				0.946872
				0.918415
				0.920298
				0.891597
				0.893491
				0.865984
				0.867211
				0.842396
				0.842312
				0.821595
				0.819709
				0.804284
				0.800261
				0.791602
				0.783824
				0.783303
				0.771995
				0.779708
				0.765418
				0.78053
				0.764204
				0.784977
				0.767773
				0.792101
				0.775149
				0.80125
				0.785442
				0.812459
				0.798331
				0.826701
				0.81441
				0.846025
				0.835386
				0.873693
				0.864257
				0.91437
				0.905552
				0.974338
				0.965631
				1.06096
				1.05238
				1.17861
				1.17139
				1.31555
				1.31184
				1.43462
				1.42327
				1.41296
				1.42517
				1.23683
				1.26246
				1.04774
				1.07635
				0.932002
				0.968436
				0.872994
				0.909852
				0.848306
				0.883138
				0.842316
				0.874706
				0.845659
				0.875766
				0.85283
				0.880937
				0.860636
				0.88701
				0.867365
				0.89221
				0.87234
				0.895769
				0.875613
				0.897611
				0.877752
				0.898117
				0.87967
				0.897961
				0.882467
				0.898002
				0.887202
				0.899157
				0.894691
				0.902241
				0.904801
				0.908017
				0.918397
				0.916744
				0.934785
				0.928196
				0.953067
				0.94157
				0.97239
				0.956057
				0.991962
				0.970885
				1.01108
				0.985331
				1.02912
				0.998735
				1.0456
				1.01052
				1.06009
				1.02026
				1.07226
				1.02777
				1.08139
				1.03331
				1.08393
				1.03774
				1.08796
				1.04116
				1.08796
				1.0467
				1.08393
				1.04116
				1.08139
				1.03774
				1.07226
				1.03331
				1.06009
				1.02777
				1.04559
				1.02026
				1.02912
				1.01052
				1.01107
				0.998734
				0.991959
				0.98533
				0.972387
				0.970883
				0.953065
				0.956055
				0.934782
				0.941568
				0.918395
				0.928194
				0.9048
				0.916742
				0.89469
				0.908016
				0.887202
				0.902241
				0.882468
				0.899158
				0.879671
				0.898003
				0.877753
				0.897963
				0.875614
				0.898119
				0.872341
				0.897613
				0.867367
				0.895772
				0.860636
				0.892212
				0.852831
				0.887011
				0.84566
				0.880939
				0.842319
				0.875769
				0.848311
				0.874711
				0.873001
				0.883146
				0.932003
				0.909862
				1.0477
				0.968445
				1.2369
				1.07638
				1.42739
				1.26848
				1.30058
				1.42073
				1.05954
				1.26834
				0.960236
				1.05704
				0.920274
				0.957139
				0.910759
				0.917338
				0.914186
				0.907601
				0.92149
				0.910365
				0.928277
				0.916741
				0.932658
				0.922491
				0.934148
				0.925832
				0.933063
				0.926363
				0.930147
				0.924475
				0.92634
				0.920994
				0.922643
				0.916964
				0.920034
				0.913499
				0.919378
				0.911664
				0.921336
				0.912342
				0.926675
				0.916171
				0.935342
				0.923245
				0.946004
				0.933304
				0.958313
				0.945375
				0.971787
				0.958915
				0.985892
				0.973318
				1.0001
				0.987986
				1.0139
				1.00236
				1.02687
				1.01596
				1.03866
				1.02837
				1.04906
				1.03931
				1.05799
				1.04862
				1.06518
				1.05617
				1.06797
				1.06092
				1.0775
				1.0584
				1.0775
				1.06011
				1.06797
				1.0584
				1.06518
				1.06092
				1.05799
				1.05617
				1.04906
				1.04862
				1.03866
				1.03931
				1.02687
				1.02837
				1.0139
				1.01596
				1.00009
				1.00236
				0.98589
				0.987984
				0.971785
				0.973316
				0.958311
				0.958913
				0.946002
				0.945373
				0.935341
				0.933303
				0.926674
				0.923244
				0.921335
				0.916171
				0.919379
				0.912342
				0.920036
				0.911665
				0.922645
				0.9135
				0.926342
				0.916966
				0.93015
				0.920997
				0.933066
				0.924478
				0.934151
				0.926367
				0.932661
				0.925835
				0.928281
				0.922494
				0.921494
				0.916746
				0.914192
				0.910371
				0.910768
				0.90761
				0.92029
				0.917353
				0.960253
				0.957157
				1.05956
				1.05705
				1.31892
				1.27577
				1.28573
				1.3096
				1.02799
				1.05547
				0.917776
				0.934182
				0.890468
				0.912471
				0.894337
				0.916341
				0.907185
				0.927702
				0.920547
				0.939304
				0.931489
				0.948549
				0.93939
				0.954934
				0.9446
				0.958834
				0.94779
				0.960896
				0.949652
				0.961747
				0.950777
				0.96189
				0.951643
				0.961708
				0.952648
				0.961496
				0.954127
				0.961501
				0.956382
				0.961943
				0.959421
				0.96303
				0.963719
				0.965241
				0.970007
				0.968768
				0.977945
				0.973846
				0.987091
				0.9801
				0.99696
				0.987096
				1.00708
				0.994386
				1.01702
				1.00155
				1.02644
				1.0082
				1.03508
				1.01404
				1.04285
				1.01889
				1.04987
				1.02269
				1.05615
				1.02564
				1.05869
				1.02808
				1.06747
				1.03155
				1.06747
				1.0316
				1.05869
				1.03155
				1.05615
				1.02808
				1.04987
				1.02564
				1.04285
				1.02269
				1.03507
				1.01888
				1.02643
				1.01404
				1.01702
				1.0082
				1.00708
				1.00154
				0.996958
				0.994385
				0.987089
				0.987094
				0.977943
				0.980099
				0.970005
				0.973844
				0.963718
				0.968767
				0.95942
				0.965241
				0.956381
				0.96303
				0.954127
				0.961943
				0.952648
				0.961501
				0.951643
				0.961496
				0.950777
				0.961708
				0.949653
				0.961891
				0.947791
				0.961748
				0.9446
				0.960898
				0.93939
				0.958836
				0.931489
				0.954936
				0.920547
				0.948552
				0.907184
				0.939307
				0.894338
				0.927708
				0.890473
				0.916352
				0.917795
				0.912497
				1.0281
				0.93427
				1.311
				1.06295
				1.12036
				1.28935
				0.939259
				1.06533
				0.925438
				0.936192
				0.935863
				0.92399
				0.949425
				0.934264
				0.960505
				0.947438
				0.968021
				0.958072
				0.972373
				0.965155
				0.9743
				0.969111
				0.974506
				0.970693
				0.973576
				0.970617
				0.972008
				0.969488
				0.970257
				0.967837
				0.968754
				0.966152
				0.967892
				0.964891
				0.968005
				0.964466
				0.969332
				0.965209
				0.972604
				0.967402
				0.976997
				0.971146
				0.982241
				0.976083
				0.988239
				0.981938
				0.994808
				0.988527
				1.00171
				0.995593
				1.00868
				1.00284
				1.01548
				1.01
				1.02189
				1.0168
				1.02777
				1.02305
				1.03305
				1.02866
				1.03776
				1.03364
				1.04174
				1.03803
				1.04411
				1.04098
				1.05169
				1.04441
				1.05169
				1.04514
				1.04411
				1.04441
				1.04174
				1.04098
				1.03776
				1.03803
				1.03305
				1.03364
				1.02777
				1.02866
				1.02189
				1.02305
				1.01548
				1.01679
				1.00868
				1.01
				1.00171
				1.00284
				0.994806
				0.995591
				0.988237
				0.988526
				0.982239
				0.981937
				0.976996
				0.976082
				0.972603
				0.971144
				0.969331
				0.967401
				0.968004
				0.965208
				0.967891
				0.964466
				0.968754
				0.964891
				0.970257
				0.966152
				0.972008
				0.967838
				0.973576
				0.969489
				0.974507
				0.970617
				0.974301
				0.970694
				0.972374
				0.969113
				0.968022
				0.965156
				0.960506
				0.958074
				0.949427
				0.94744
				0.935865
				0.934267
				0.925445
				0.923998
				0.93961
				0.936311
				1.13668
				1.07419
				1.10052
				1.12531
				0.933384
				0.961021
				0.913032
				0.920353
				0.927506
				0.940771
				0.944444
				0.957434
				0.957479
				0.969009
				0.966383
				0.97638
				0.972092
				0.980731
				0.975584
				0.983082
				0.977636
				0.984194
				0.978825
				0.984594
				0.979572
				0.984646
				0.980175
				0.984596
				0.980846
				0.984603
				0.981732
				0.984769
				0.98293
				0.985158
				0.984513
				0.985816
				0.986164
				0.986794
				0.98845
				0.988062
				0.991549
				0.989909
				0.99533
				0.992376
				0.999619
				0.995305
				1.00422
				0.998517
				1.00893
				1.00182
				1.01356
				1.00504
				1.01795
				1.00799
				1.02202
				1.01054
				1.02573
				1.01258
				1.02922
				1.0141
				1.0327
				1.01517
				1.03513
				1.01632
				1.04181
				1.01879
				1.04181
				1.01905
				1.03513
				1.01879
				1.0327
				1.01632
				1.02921
				1.01517
				1.02573
				1.0141
				1.02201
				1.01258
				1.01795
				1.01054
				1.01356
				1.00799
				1.00893
				1.00504
				1.00422
				1.00182
				0.999618
				0.998516
				0.995328
				0.995304
				0.991548
				0.992374
				0.988449
				0.989907
				0.986163
				0.98806
				0.984511
				0.986792
				0.982928
				0.985814
				0.98173
				0.985156
				0.980845
				0.984767
				0.980173
				0.984601
				0.97957
				0.984594
				0.978823
				0.984644
				0.977634
				0.984592
				0.975582
				0.984192
				0.972089
				0.983081
				0.966379
				0.980728
				0.957474
				0.976378
				0.944438
				0.969007
				0.927499
				0.957433
				0.913028
				0.940772
				0.933654
				0.92038
				1.12716
				0.969154
				1.00369
				1.10117
				0.932293
				0.964079
				0.95146
				0.92957
				0.968326
				0.950523
				0.978497
				0.967275
				0.984199
				0.977278
				0.987134
				0.982839
				0.988419
				0.985661
				0.988732
				0.986853
				0.988489
				0.987095
				0.987957
				0.986807
				0.987337
				0.986269
				0.986796
				0.985689
				0.986486
				0.985248
				0.986548
				0.985107
				0.987092
				0.985407
				0.988187
				0.986255
				0.990315
				0.987724
				0.992714
				0.989981
				0.995385
				0.99257
				0.998291
				0.99546
				1.00136
				0.998583
				1.0045
				1.00184
				1.00762
				1.00513
				1.01061
				1.00833
				1.0134
				1.01135
				1.01593
				1.01412
				1.01818
				1.01661
				1.02016
				1.01883
				1.02186
				1.02084
				1.02436
				1.02223
				1.02732
				1.02564
				1.02732
				1.02622
				1.02435
				1.02564
				1.02186
				1.02223
				1.02016
				1.02084
				1.01818
				1.01883
				1.01593
				1.01661
				1.0134
				1.01412
				1.01061
				1.01135
				1.00762
				1.00833
				1.0045
				1.00513
				1.00136
				1.00184
				0.998289
				0.998581
				0.995383
				0.995458
				0.992712
				0.992568
				0.990313
				0.989979
				0.988185
				0.987722
				0.987089
				0.986252
				0.986545
				0.985405
				0.986483
				0.985104
				0.986792
				0.985245
				0.987333
				0.985686
				0.987953
				0.986265
				0.988484
				0.986803
				0.988727
				0.987091
				0.988413
				0.986848
				0.987128
				0.985655
				0.984192
				0.982833
				0.97849
				0.977271
				0.968316
				0.967266
				0.951447
				0.950511
				0.932898
				0.929632
				1.01592
				0.973869
				0.98543
				1.00494
				0.934114
				0.946523
				0.94716
				0.948576
				0.964358
				0.971597
				0.975468
				0.982296
				0.982036
				0.987672
				0.985859
				0.990392
				0.988077
				0.991716
				0.989362
				0.992304
				0.990123
				0.99252
				0.990618
				0.992575
				0.991019
				0.992598
				0.991441
				0.992671
				0.991961
				0.992844
				0.99263
				0.993145
				0.993477
				0.99359
				0.994519
				0.994187
				0.995435
				0.994951
				0.996704
				0.99571
				0.998283
				0.996757
				1.0001
				0.998029
				1.00207
				0.999442
				1.00411
				1.00091
				1.00615
				1.00236
				1.0081
				1.00371
				1.00992
				1.00489
				1.01158
				1.00584
				1.01306
				1.00653
				1.01446
				1.00695
				1.01601
				1.00716
				1.01863
				1.00752
				1.02105
				1.0094
				1.02105
				1.00924
				1.01863
				1.0094
				1.016
				1.00752
				1.01446
				1.00716
				1.01306
				1.00695
				1.01158
				1.00653
				1.00992
				1.00584
				1.0081
				1.00489
				1.00615
				1.00371
				1.00411
				1.00236
				1.00207
				1.00091
				1.0001
				0.999441
				0.998281
				0.998028
				0.996702
				0.996755
				0.995433
				0.995707
				0.994516
				0.994948
				0.993473
				0.994184
				0.992627
				0.993586
				0.991957
				0.993141
				0.991436
				0.992839
				0.991014
				0.992666
				0.990613
				0.992592
				0.990117
				0.992568
				0.989355
				0.992513
				0.988069
				0.992296
				0.98585
				0.991707
				0.982026
				0.990382
				0.975457
				0.98766
				0.964344
				0.982282
				0.947141
				0.971579
				0.934594
				0.948562
				1.00697
				0.953772
				0.958625
				0.985136
				0.956914
				0.94667
				0.976807
				0.957029
				0.986521
				0.976231
				0.99081
				0.985941
				0.992714
				0.990201
				0.993502
				0.992087
				0.993753
				0.992865
				0.993745
				0.993111
				0.993624
				0.993105
				0.993478
				0.992995
				0.99337
				0.992875
				0.993358
				0.992813
				0.993492
				0.99287
				0.993816
				0.993098
				0.994361
				0.993541
				0.995178
				0.994232
				0.996368
				0.995175
				0.997627
				0.996406
				0.998957
				0.997728
				1.00034
				0.99913
				1.00174
				1.00058
				1.00312
				1.00203
				1.00443
				1.00345
				1.00565
				1.00479
				1.00673
				1.00601
				1.00768
				1.00709
				1.00847
				1.00803
				1.00912
				1.00883
				1.00968
				1.00955
				1.01105
				1.01002
				1.0122
				1.01237
				1.0122
				1.01235
				1.01105
				1.01237
				1.00968
				1.01002
				1.00912
				1.00955
				1.00847
				1.00883
				1.00768
				1.00803
				1.00673
				1.00709
				1.00565
				1.00601
				1.00443
				1.00478
				1.00312
				1.00345
				1.00174
				1.00203
				1.00034
				1.00058
				0.998955
				0.999128
				0.997624
				0.997726
				0.996365
				0.996404
				0.995174
				0.995172
				0.994357
				0.994228
				0.993811
				0.993537
				0.993486
				0.993093
				0.993352
				0.992864
				0.993363
				0.992806
				0.993469
				0.992867
				0.993615
				0.992986
				0.993735
				0.993095
				0.993741
				0.9931
				0.993489
				0.992853
				0.9927
				0.992074
				0.990794
				0.990186
				0.986505
				0.985925
				0.976791
				0.976215
				0.957626
				0.957066
				0.967023
				0.955485
				0.944625
				0.958531
				0.961406
				0.95993
				0.975042
				0.973559
				0.984421
				0.987798
				0.989306
				0.992331
				0.991879
				0.994146
				0.993297
				0.99494
				0.994115
				0.995295
				0.994613
				0.995456
				0.994947
				0.995539
				0.995211
				0.995606
				0.995466
				0.995694
				0.995753
				0.995825
				0.9961
				0.996015
				0.996524
				0.996271
				0.997034
				0.9966
				0.997609
				0.996999
				0.998152
				0.99747
				0.998839
				0.997946
				0.99963
				0.998533
				1.00049
				0.999187
				1.00138
				0.999869
				1.00226
				1.00054
				1.00311
				1.00117
				1.00389
				1.00172
				1.00458
				1.00218
				1.00518
				1.00251
				1.00569
				1.00271
				1.00614
				1.00277
				1.0067
				1.00272
				1.00816
				1.00278
				1.00907
				1.00376
				1.00907
				1.00367
				1.00816
				1.00376
				1.0067
				1.00278
				1.00614
				1.00272
				1.00569
				1.00277
				1.00518
				1.00271
				1.00458
				1.00251
				1.00389
				1.00218
				1.00311
				1.00172
				1.00226
				1.00117
				1.00138
				1.00054
				1.00049
				0.999868
				0.999629
				0.999185
				0.998836
				0.99853
				0.99815
				0.997944
				0.997606
				0.997467
				0.99703
				0.996995
				0.996519
				0.996596
				0.996095
				0.996266
				0.995748
				0.996009
				0.99546
				0.995819
				0.995203
				0.995686
				0.994938
				0.995597
				0.994603
				0.995529
				0.994104
				0.995444
				0.993285
				0.995281
				0.991865
				0.994924
				0.98929
				0.994128
				0.984403
				0.992308
				0.975019
				0.987768
				0.961991
				0.973527
				0.960176
				0.965575
				0.954078
				0.943553
				0.978458
				0.96011
				0.989878
				0.979809
				0.993745
				0.989576
				0.99512
				0.993481
				0.995652
				0.994866
				0.995859
				0.995408
				0.99593
				0.995624
				0.995949
				0.995705
				0.995955
				0.995735
				0.995977
				0.995758
				0.996037
				0.995801
				0.996157
				0.995892
				0.996355
				0.996051
				0.996645
				0.996298
				0.997034
				0.996644
				0.997548
				0.997099
				0.998178
				0.997649
				0.998823
				0.998288
				0.999477
				0.998946
				1.00013
				0.999615
				1.00076
				1.00028
				1.00135
				1.00092
				1.0019
				1.00151
				1.00237
				1.00205
				1.00277
				1.00253
				1.0031
				1.00292
				1.00334
				1.00324
				1.00351
				1.00349
				1.00364
				1.00369
				1.00421
				1.00381
				1.00467
				1.00498
				1.00467
				1.00492
				1.00421
				1.00498
				1.00364
				1.00381
				1.00351
				1.00369
				1.00334
				1.00349
				1.0031
				1.00324
				1.00277
				1.00292
				1.00237
				1.00252
				1.00189
				1.00205
				1.00135
				1.00151
				1.00076
				1.00091
				1.00013
				1.00028
				0.999475
				0.999613
				0.998821
				0.998944
				0.998176
				0.998285
				0.997545
				0.997646
				0.99703
				0.997095
				0.996641
				0.99664
				0.99635
				0.996293
				0.996151
				0.996046
				0.99603
				0.995886
				0.995969
				0.995794
				0.995946
				0.995749
				0.995938
				0.995725
				0.995918
				0.995694
				0.995845
				0.99561
				0.995637
				0.995392
				0.995102
				0.994848
				0.993726
				0.993462
				0.98986
				0.989557
				0.979102
				0.979824
				0.959178
				0.966953
				0.944371
				0.953638
				0.983505
				0.97587
				0.989395
				0.98703
				0.993
				0.994319
				0.9948
				0.995901
				0.995735
				0.996443
				0.996263
				0.996682
				0.996586
				0.996809
				0.996803
				0.996893
				0.996969
				0.996964
				0.997119
				0.99704
				0.997273
				0.997128
				0.997446
				0.997236
				0.997648
				0.99737
				0.997886
				0.997533
				0.99817
				0.997732
				0.99848
				0.997969
				0.998797
				0.998248
				0.999167
				0.998543
				0.999567
				0.998877
				0.999978
				0.999224
				1.00038
				0.999566
				1.00076
				0.999886
				1.00111
				1.00017
				1.00142
				1.00041
				1.00168
				1.00059
				1.00189
				1.00071
				1.00205
				1.00077
				1.00217
				1.00076
				1.00232
				1.00069
				1.00295
				1.00064
				1.00332
				1.00107
				1.00332
				1.00104
				1.00295
				1.00107
				1.00232
				1.00064
				1.00217
				1.00069
				1.00205
				1.00076
				1.00189
				1.00077
				1.00168
				1.00071
				1.00142
				1.00059
				1.00111
				1.00041
				1.00076
				1.00017
				1.00038
				0.999885
				0.999977
				0.999565
				0.999566
				0.999223
				0.999165
				0.998875
				0.998795
				0.998541
				0.998478
				0.998245
				0.998167
				0.997967
				0.997884
				0.997729
				0.997644
				0.99753
				0.997442
				0.997366
				0.997269
				0.997232
				0.997114
				0.997123
				0.996963
				0.997033
				0.996795
				0.996957
				0.996577
				0.996884
				0.996253
				0.996798
				0.995723
				0.996668
				0.994785
				0.996426
				0.992983
				0.995877
				0.989373
				0.994283
				0.984044
				0.986984
				0.954603
				0.979837
				0.964314
				0.942853
				0.990386
				0.97638
				0.995135
				0.991624
				0.996399
				0.994996
				0.996809
				0.996289
				0.996983
				0.996713
				0.997074
				0.996897
				0.997134
				0.996998
				0.997182
				0.997067
				0.997229
				0.997125
				0.997284
				0.997185
				0.997354
				0.997254
				0.997449
				0.997343
				0.997577
				0.99746
				0.997749
				0.997615
				0.997979
				0.997818
				0.99829
				0.998081
				0.998661
				0.998398
				0.999026
				0.998755
				0.999374
				0.999109
				0.999698
				0.999447
				0.999993
				0.999764
				1.00025
				1.00005
				1.00047
				1.00031
				1.00066
				1.00053
				1.0008
				1.00071
				1.0009
				1.00085
				1.00097
				1.00096
				1.00099
				1.00103
				1.00099
				1.00107
				1.00115
				1.00107
				1.00133
				1.00157
				1.00133
				1.00154
				1.00115
				1.00157
				1.00099
				1.00107
				1.00099
				1.00107
				1.00097
				1.00103
				1.0009
				1.00096
				1.0008
				1.00085
				1.00066
				1.00071
				1.00047
				1.00053
				1.00025
				1.00031
				0.999992
				1.00005
				0.999697
				0.999763
				0.999373
				0.999446
				0.999025
				0.999107
				0.998659
				0.998754
				0.998289
				0.998397
				0.997977
				0.998079
				0.997747
				0.997816
				0.997575
				0.997613
				0.997446
				0.997458
				0.997352
				0.99734
				0.997281
				0.997251
				0.997225
				0.997181
				0.997177
				0.997121
				0.997128
				0.997062
				0.997067
				0.996992
				0.996974
				0.996889
				0.996799
				0.996702
				0.996386
				0.996276
				0.995122
				0.994979
				0.990866
				0.991615
				0.966805
				0.981056
				0.958396
				0.963667
				0.99502
				0.986563
				0.995102
				0.993257
				0.996381
				0.996787
				0.997035
				0.997291
				0.997389
				0.997478
				0.9976
				0.997582
				0.99774
				0.997655
				0.997846
				0.997719
				0.997939
				0.997782
				0.998031
				0.997852
				0.998127
				0.997927
				0.998229
				0.998007
				0.998335
				0.998088
				0.998446
				0.998166
				0.998568
				0.998242
				0.998752
				0.998354
				0.999007
				0.998564
				0.999255
				0.998823
				0.999486
				0.999074
				0.999698
				0.999301
				0.999886
				0.9995
				1.00005
				0.999665
				1.00018
				0.999798
				1.00029
				0.999899
				1.00038
				0.999968
				1.00044
				1.00001
				1.00049
				1.00002
				1.00051
				1.00001
				1.00052
				0.999973
				1.00072
				0.999912
				1.00087
				1.00002
				1.00087
				1.00002
				1.00072
				1.00002
				1.00052
				0.999912
				1.00051
				0.999973
				1.00049
				1.00001
				1.00044
				1.00002
				1.00038
				1.00001
				1.00029
				0.999968
				1.00018
				0.999898
				1.00005
				0.999798
				0.999885
				0.999665
				0.999698
				0.999499
				0.999486
				0.999301
				0.999254
				0.999073
				0.999007
				0.998822
				0.998752
				0.998563
				0.998568
				0.998354
				0.998446
				0.998242
				0.998335
				0.998166
				0.998228
				0.998088
				0.998126
				0.998007
				0.99803
				0.997926
				0.997938
				0.997851
				0.997845
				0.997782
				0.997739
				0.997718
				0.997599
				0.997654
				0.997387
				0.997579
				0.997031
				0.997473
				0.996375
				0.997281
				0.995094
				0.996762
				0.995455
				0.993203
				0.964151
				0.98884
				0.97728
				0.957162
				0.994936
				0.988398
				0.996902
				0.995739
				0.997426
				0.996861
				0.997607
				0.997384
				0.997677
				0.997569
				0.997704
				0.997646
				0.997719
				0.997682
				0.997735
				0.997707
				0.997759
				0.997733
				0.997794
				0.997769
				0.99784
				0.997818
				0.997893
				0.997879
				0.997946
				0.997949
				0.997984
				0.99802
				0.997985
				0.998078
				0.998438
				0.998181
				0.998963
				0.998577
				0.999297
				0.99904
				0.999527
				0.999341
				0.999689
				0.999555
				0.999803
				0.999712
				0.999885
				0.99983
				0.999942
				0.99992
				0.999983
				0.999988
				1.00001
				1.00004
				1.00002
				1.00008
				1.00003
				1.0001
				1.00002
				1.00012
				1.00001
				1.00013
				1
				1.0001
				1
				1.00025
				1
				1.00025
				1
				1.00025
				1.00001
				1.0001
				1.00002
				1.00013
				1.00003
				1.00012
				1.00002
				1.0001
				1.00001
				1.00008
				0.999982
				1.00004
				0.999942
				0.999988
				0.999884
				0.99992
				0.999803
				0.99983
				0.999689
				0.999712
				0.999527
				0.999555
				0.999297
				0.999341
				0.998963
				0.99904
				0.998438
				0.998577
				0.997986
				0.998182
				0.997985
				0.998079
				0.997947
				0.998021
				0.997894
				0.99795
				0.99784
				0.99788
				0.997795
				0.997819
				0.99776
				0.99777
				0.997737
				0.997735
				0.997722
				0.997709
				0.997709
				0.997686
				0.997683
				0.997651
				0.997618
				0.997577
				0.997441
				0.997397
				0.996925
				0.996879
				0.995266
				0.995779
				0.977362
				0.990939
			</DataArray>
			<DataArray type="Float64" Name="mach-number" Format="ascii">
				0.00678647
				0.0144272
				0.0215509
				0.0217134
				0.0500554
				0.047641
				0.0932643
				0.0860443
				0.143495
				0.131491
				0.196709
				0.18161
				0.251097
				0.233823
				0.305508
				0.286328
				0.358853
				0.337778
				0.409927
				0.386957
				0.457399
				0.432616
				0.49984
				0.473478
				0.535727
				0.508244
				0.563562
				0.535676
				0.581962
				0.554696
				0.590056
				0.564557
				0.587679
				0.565102
				0.575496
				0.556789
				0.554567
				0.540379
				0.525986
				0.516617
				0.492376
				0.487752
				0.45533
				0.45522
				0.415841
				0.419979
				0.374515
				0.38263
				0.331692
				0.343531
				0.287517
				0.302864
				0.242065
				0.260747
				0.195448
				0.217387
				0.147996
				0.173298
				0.100608
				0.129659
				0.0552558
				0.0888042
				0.0164978
				0.0539052
				0.0165034
				0.035298
				0.0552617
				0.0539089
				0.100615
				0.0888103
				0.148004
				0.129666
				0.195455
				0.173305
				0.242073
				0.217394
				0.287525
				0.260754
				0.331699
				0.30287
				0.374521
				0.343537
				0.415847
				0.382636
				0.455335
				0.419984
				0.492382
				0.455225
				0.525989
				0.487756
				0.554569
				0.51662
				0.575496
				0.54038
				0.587676
				0.556788
				0.59005
				0.565099
				0.581954
				0.564552
				0.563552
				0.554689
				0.535715
				0.535667
				0.499826
				0.508233
				0.457384
				0.473465
				0.409912
				0.432603
				0.358838
				0.386943
				0.305494
				0.337765
				0.251085
				0.286315
				0.196701
				0.233813
				0.143493
				0.181603
				0.0932757
				0.131492
				0.0500833
				0.0860527
				0.0215659
				0.0476661
				0.00633762
				0.0219337
				0.025643
				0.0146089
				0.0508243
				0.0190448
				0.0879589
				0.0441084
				0.118501
				0.0811039
				0.150377
				0.118443
				0.186413
				0.157573
				0.226328
				0.199438
				0.269195
				0.244084
				0.313948
				0.291029
				0.359359
				0.339372
				0.403958
				0.387783
				0.445987
				0.434494
				0.483424
				0.47732
				0.514144
				0.513805
				0.536253
				0.54156
				0.548506
				0.558763
				0.550599
				0.564656
				0.543162
				0.55969
				0.526833
				0.545101
				0.503851
				0.522845
				0.475324
				0.4942
				0.442508
				0.460765
				0.406528
				0.42394
				0.368298
				0.38479
				0.328566
				0.344088
				0.287983
				0.302372
				0.247239
				0.260042
				0.207258
				0.217467
				0.169425
				0.175102
				0.135567
				0.133629
				0.106874
				0.09421
				0.0804488
				0.0571854
				0.0804502
				0.0378208
				0.106879
				0.0571893
				0.135572
				0.0942169
				0.169431
				0.133635
				0.207264
				0.175109
				0.247245
				0.217474
				0.287988
				0.260049
				0.328571
				0.302378
				0.368304
				0.344094
				0.406533
				0.384796
				0.442513
				0.423945
				0.475327
				0.46077
				0.503853
				0.494203
				0.526834
				0.522847
				0.543161
				0.545101
				0.550596
				0.559688
				0.548501
				0.564652
				0.536246
				0.558757
				0.514134
				0.541551
				0.483412
				0.513794
				0.445974
				0.477307
				0.403944
				0.434479
				0.359344
				0.387768
				0.313934
				0.339357
				0.269181
				0.291014
				0.226314
				0.244069
				0.1864
				0.199425
				0.150363
				0.15756
				0.118484
				0.118431
				0.0879377
				0.0810936
				0.0508738
				0.0441328
				0.0273769
				0.0195383
				0.0256695
				0.0349077
				0.0502451
				0.0553945
				0.0922011
				0.104901
				0.127299
				0.139034
				0.161598
				0.168526
				0.198503
				0.20082
				0.238067
				0.236749
				0.279267
				0.275184
				0.320898
				0.314687
				0.36182
				0.353924
				0.400984
				0.391728
				0.437371
				0.427038
				0.469893
				0.458803
				0.497332
				0.485895
				0.518353
				0.507094
				0.531659
				0.521211
				0.536276
				0.527336
				0.531829
				0.525076
				0.518996
				0.514427
				0.498788
				0.49671
				0.472642
				0.473468
				0.441965
				0.445901