<VTKFile type="UnstructuredGrid" version="0.1" byte_order="LittleEndian">
<UnstructuredGrid>
	<Piece NumberOfPoints="1088" NumberOfCells="2048">
		<CellData Scalars="density" Vectors="velocity">
			<DataArray type="Float64" Name="density" Format="ascii">
				0.950404
				0.950958
				0.949708
				0.950674
				0.948108
				0.949716
				0.945265
				0.947813
				0.940839
				0.944629
				0.934563
				0.939876
				0.926296
				0.933367
				0.916036
				0.925047
				0.903933
				0.914997
				0.890343
				0.903465
				0.875825
				0.890886
				0.861167
				0.877899
				0.84738
				0.86534
				0.835635
				0.854216
				0.827226
				0.845644
				0.823323
				0.840721
				0.824835
				0.840353
				0.832094
				0.845054
				0.84486
				0.854825
				0.862304
				0.86916
				0.883346
				0.887203
				0.906776
				0.907933
				0.931452
				0.930303
				0.956348
				0.953339
				0.980558
				0.976163
				1.00333
				0.998011
				1.024
				1.01823
				1.04203
				1.03625
				1.05699
				1.05163
				1.0685
				1.06397
				1.07633
				1.07299
				1.08028
				1.07848
				1.08028
				1.08033
				1.07633
				1.07848
				1.0685
				1.07299
				1.05699
				1.06397
				1.04203
				1.05163
				1.024
				1.03625
				1.00333
				1.01823
				0.980558
				0.998011
				0.956348
				0.976163
				0.931452
				0.953339
				0.906776
				0.930303
				0.883346
				0.907933
				0.862304
				0.887203
				0.84486
				0.86916
				0.832094
				0.854825
				0.824835
				0.845054
				0.823323
				0.840353
				0.827226
				0.840721
				0.835635
				0.845644
				0.84738
				0.854216
				0.861167
				0.86534
				0.875825
				0.877899
				0.890343
				0.890887
				0.903933
				0.903465
				0.916036
				0.914997
				0.926296
				0.925047
				0.934563
				0.933367
				0.940839
				0.939876
				0.945265
				0.94463
				0.948108
				0.947813
				0.949708
				0.949716
				0.950404
				0.950674
				0.956043
				0.95535
				0.955909
				0.955235
				0.955417
				0.954763
				0.954209
				0.953618
				0.951933
				0.951427
				0.94833
				0.947875
				0.943261
				0.942766
				0.936706
				0.936019
				0.928775
				0.927674
				0.919727
				0.917915
				0.909996
				0.907097
				0.900188
				0.895761
				0.891071
				0.884644
				0.883535
				0.874655
				0.878501
				0.866827
				0.876798
				0.862196
				0.878999
				0.861635
				0.885295
				0.86565
				0.895456
				0.874257
				0.908908
				0.886984
				0.924871
				0.903022
				0.942494
				0.921409
				0.960956
				0.941176
				0.979508
				0.961433
				0.997499
				0.9814
				1.01437
				1.00042
				1.02965
				1.01793
				1.04295
				1.03347
				1.05395
				1.04667
				1.06241
				1.05724
				1.06815
				1.06494
				1.07105
				1.06963
				1.07105
				1.0712
				1.06815
				1.06963
				1.06241
				1.06494
				1.05395
				1.05724
				1.04295
				1.04667
				1.02965
				1.03347
				1.01437
				1.01793
				0.997499
				1.00042
				0.979508
				0.9814
				0.960956
				0.961433
				0.942494
				0.941176
				0.924871
				0.921409
				0.908909
				0.903023
				0.895456
				0.886984
				0.885295
				0.874257
				0.878999
				0.86565
				0.876798
				0.861635
				0.878501
				0.862196
				0.883535
				0.866827
				0.891071
				0.874655
				0.900188
				0.884644
				0.909996
				0.895761
				0.919727
				0.907097
				0.928775
				0.917915
				0.936706
				0.927674
				0.943261
				0.936019
				0.94833
				0.942766
				0.951933
				0.947875
				0.954209
				0.951427
				0.955417
				0.953618
				0.955909
				0.954763
				0.956043
				0.955235
				0.960705
				0.961689
				0.960844
				0.961861
				0.960855
				0.962236
				0.960332
				0.962447
				0.958896
				0.962059
				0.956287
				0.960717
				0.95237
				0.958197
				0.947121
				0.954409
				0.940629
				0.949382
				0.933118
				0.943276
				0.92496
				0.936392
				0.916679
				0.92917
				0.90894
				0.922185
				0.902518
				0.916106
				0.898218
				0.911648
				0.89677
				0.909486
				0.898684
				0.910144
				0.90413
				0.913896
				0.912906
				0.920707
				0.924499
				0.93025
				0.938212
				0.94199
				0.95329
				0.955286
				0.969007
				0.969484
				0.984715
				0.983968
				0.99986
				0.998197
				1.01398
				1.01171
				1.0267
				1.02411
				1.03772
				1.03508
				1.04679
				1.04438
				1.05375
				1.05181
				1.05846
				1.05722
				1.06083
				1.0605
				1.06083
				1.0616
				1.05846
				1.0605
				1.05375
				1.05722
				1.04679
				1.05181
				1.03772
				1.04438
				1.0267
				1.03508
				1.01398
				1.02411
				0.99986
				1.01171
				0.984715
				0.998197
				0.969007
				0.983968
				0.95329
				0.969484
				0.938212
				0.955286
				0.924499
				0.94199
				0.912906
				0.93025
				0.90413
				0.920707
				0.898684
				0.913896
				0.89677
				0.910144
				0.898218
				0.909486
				0.902518
				0.911648
				0.90894
				0.916106
				0.916679
				0.922185
				0.92496
				0.92917
				0.933118
				0.936392
				0.940629
				0.943276
				0.947121
				0.949383
				0.95237
				0.954409
				0.956287
				0.958197
				0.958896
				0.960717
				0.960332
				0.962059
				0.960855
				0.962447
				0.960844
				0.962236
				0.960705
				0.961861
				0.967152
				0.965732
				0.967885
				0.96602
				0.969002
				0.966712
				0.969973
				0.967374
				0.970302
				0.967528
				0.969665
				0.966817
				0.967917
				0.96505
				0.965058
				0.96217
				0.96121
				0.958228
				0.956605
				0.95338
				0.951577
				0.947893
				0.946547
				0.94214
				0.941999
				0.936593
				0.938453
				0.9318
				0.936409
				0.928343
				0.936287
				0.926767
				0.938356
				0.927496
				0.942681
				0.930748
				0.949116
				0.936485
				0.957337
				0.944432
				0.966903
				0.954141
				0.977333
				0.965075
				0.98815
				0.976688
				0.998924
				0.988471
				1.00928
				0.999978
				1.01891
				1.01084
				1.02756
				1.02075
				1.03503
				1.02948
				1.04117
				1.03684
				1.04587
				1.04269
				1.04904
				1.04694
				1.05064
				1.04951
				1.05064
				1.05037
				1.04904
				1.04951
				1.04587
				1.04694
				1.04117
				1.04269
				1.03503
				1.03684
				1.02756
				1.02948
				1.01891
				1.02075
				1.00928
				1.01084
				0.998924
				0.999978
				0.98815
				0.988471
				0.977333
				0.976688
				0.966903
				0.965075
				0.957337
				0.954141
				0.949116
				0.944432
				0.942681
				0.936485
				0.938356
				0.930748
				0.936287
				0.927497
				0.936409
				0.926767
				0.938453
				0.928343
				0.941999
				0.9318
				0.946547
				0.936593
				0.951577
				0.94214
				0.956605
				0.947893
				0.96121
				0.95338
				0.965058
				0.958228
				0.967917
				0.96217
				0.969665
				0.96505
				0.970302
				0.966817
				0.969973
				0.967528
				0.969002
				0.967374
				0.967885
				0.966711
				0.967152
				0.96602
				0.970044
				0.971495
				0.970975
				0.972097
				0.972423
				0.973656
				0.973783
				0.975561
				0.974537
				0.977136
				0.974396
				0.977899
				0.973272
				0.977636
				0.971211
				0.976341
				0.968349
				0.974141
				0.964897
				0.971243
				0.961133
				0.967919
				0.957391
				0.964482
				0.954053
				0.961276
				0.951516
				0.958664
				0.950166
				0.956997
				0.950316
				0.95658
				0.952164
				0.957635
				0.95575
				0.960259
				0.96095
				0.964409
				0.967506
				0.96991
				0.97507
				0.976488
				0.983262
				0.983814
				0.991709
				0.991547
				1.00007
				0.999362
				1.00807
				1.00697
				1.01546
				1.01414
				1.02206
				1.02066
				1.02773
				1.02639
				1.03237
				1.03121
				1.03591
				1.03503
				1.03829
				1.0378
				1.03949
				1.03948
				1.03949
				1.04004
				1.03829
				1.03948
				1.03591
				1.0378
				1.03237
				1.03503
				1.02773
				1.03121
				1.02206
				1.02639
				1.01546
				1.02066
				1.00807
				1.01414
				1.00007
				1.00697
				0.991708
				0.999362
				0.983262
				0.991546
				0.97507
				0.983814
				0.967506
				0.976488
				0.96095
				0.96991
				0.95575
				0.964409
				0.952164
				0.960259
				0.950316
				0.957635
				0.950166
				0.95658
				0.951516
				0.956997
				0.954053
				0.958664
				0.957391
				0.961277
				0.961133
				0.964482
				0.964897
				0.967919
				0.968349
				0.971244
				0.971211
				0.974141
				0.973272
				0.976341
				0.974396
				0.977636
				0.974537
				0.977899
				0.973783
				0.977136
				0.972423
				0.975561
				0.970975
				0.973656
				0.970044
				0.972097
				0.975092
				0.973139
				0.976607
				0.97384
				0.979041
				0.975654
				0.981531
				0.977878
				0.983371
				0.979783
				0.984222
				0.980903
				0.984063
				0.981085
				0.98304
				0.980378
				0.981368
				0.978927
				0.979286
				0.976925
				0.977041
				0.974598
				0.974882
				0.972194
				0.973059
				0.969979
				0.971811
				0.968226
				0.971352
				0.967194
				0.971846
				0.967105
				0.973385
				0.968114
				0.975972
				0.970282
				0.979524
				0.973566
				0.983882
				0.97783
				0.988838
				0.982865
				0.994159
				0.988423
				0.999618
				0.994247
				1.00501
				1.0001
				1.01014
				1.00576
				1.01488
				1.01106
				1.0191
				1.01586
				1.02272
				1.02006
				1.02567
				1.02357
				1.02792
				1.02635
				1.02944
				1.02835
				1.0302
				1.02956
				1.0302
				1.02997
				1.02944
				1.02956
				1.02792
				1.02835
				1.02567
				1.02635
				1.02272
				1.02357
				1.0191
				1.02006
				1.01488
				1.01586
				1.01014
				1.01106
				1.00501
				1.00576
				0.999618
				1.0001
				0.994159
				0.994247
				0.988838
				0.988423
				0.983882
				0.982865
				0.979524
				0.97783
				0.975972
				0.973566
				0.973385
				0.970282
				0.971846
				0.968114
				0.971353
				0.967105
				0.971811
				0.967194
				0.973059
				0.968226
				0.974882
				0.969979
				0.977041
				0.972194
				0.979286
				0.974598
				0.981368
				0.976925
				0.98304
				0.978927
				0.984063
				0.980378
				0.984222
				0.981085
				0.983371
				0.980903
				0.981531
				0.979783
				0.979041
				0.977878
				0.976607
				0.975654
				0.975092
				0.97384
				0.975938
				0.977529
				0.97762
				0.978495
				0.980307
				0.980989
				0.983057
				0.984045
				0.985156
				0.986699
				0.98632
				0.988408
				0.986578
				0.989086
				0.9861
				0.988898
				0.985089
				0.988084
				0.983748
				0.986874
				0.982275
				0.985476
				0.980863
				0.984079
				0.979701
				0.98286
				0.978966
				0.981982
				0.97881
				0.981589
				0.979344
				0.981798
				0.980627
				0.982682
				0.982654
				0.984262
				0.985357
				0.986502
				0.988617
				0.989315
				0.99228
				0.992574
				0.99618
				0.996132
				1.00015
				0.999834
				1.00404
				1.00353
				1.00773
				1.0071
				1.01112
				1.01044
				1.01411
				1.01345
				1.01667
				1.01607
				1.01876
				1.01826
				1.02033
				1.01999
				1.02139
				1.02124
				1.02192
				1.02199
				1.02192
				1.02224
				1.02139
				1.02199
				1.02033
				1.02124
				1.01876
				1.01999
				1.01667
				1.01826
				1.01411
				1.01607
				1.01112
				1.01345
				1.00773
				1.01044
				1.00404
				1.0071
				1.00015
				1.00353
				0.99618
				0.999834
				0.99228
				0.996132
				0.988617
				0.992574
				0.985357
				0.989315
				0.982654
				0.986502
				0.980627
				0.984262
				0.979344
				0.982682
				0.97881
				0.981798
				0.978966
				0.981589
				0.979701
				0.981982
				0.980863
				0.98286
				0.982275
				0.984079
				0.983748
				0.985476
				0.985089
				0.986874
				0.9861
				0.988084
				0.986578
				0.988898
				0.98632
				0.989085
				0.985156
				0.988408
				0.983057
				0.986699
				0.980307
				0.984045
				0.97762
				0.980989
				0.975938
				0.978495
				0.980115
				0.978032
				0.982158
				0.979068
				0.985363
				0.981726
				0.988547
				0.98496
				0.990899
				0.987774
				0.992196
				0.989666
				0.992598
				0.990606
				0.992371
				0.990785
				0.991755
				0.99043
				0.99094
				0.989742
				0.990079
				0.988892
				0.989299
				0.988032
				0.988714
				0.987294
				0.988423
				0.986801
				0.988504
				0.986656
				0.989013
				0.986938
				0.989972
				0.987694
				0.99137
				0.988932
				0.993159
				0.990622
				0.995266
				0.992698
				0.997599
				0.995068
				1.00006
				0.997627
				1.00255
				1.00027
				1.00497
				1.00288
				1.00726
				1.00539
				1.00936
				1.00772
				1.01121
				1.00981
				1.01278
				1.01163
				1.01406
				1.01314
				1.01503
				1.01432
				1.01568
				1.01517
				1.01601
				1.01569
				1.01601
				1.01586
				1.01568
				1.01569
				1.01503
				1.01517
				1.01406
				1.01432
				1.01278
				1.01314
				1.01121
				1.01163
				1.00936
				1.00981
				1.00726
				1.00772
				1.00497
				1.00539
				1.00255
				1.00288
				1.00006
				1.00027
				0.997599
				0.997627
				0.995266
				0.995068
				0.993159
				0.992698
				0.99137
				0.990622
				0.989972
				0.988932
				0.989013
				0.987694
				0.988504
				0.986938
				0.988423
				0.986656
				0.988714
				0.986801
				0.989299
				0.987294
				0.990079
				0.988032
				0.99094
				0.988892
				0.991755
				0.989742
				0.992371
				0.99043
				0.992598
				0.990785
				0.992196
				0.990606
				0.990899
				0.989666
				0.988547
				0.987774
				0.985363
				0.98496
				0.982158
				0.981726
				0.980115
				0.979068
				0.980668
				0.982097
				0.982782
				0.983242
				0.986071
				0.986126
				0.989313
				0.98951
				0.991725
				0.992296
				0.993141
				0.994044
				0.993752
				0.994857
				0.993815
				0.995021
				0.993547
				0.994797
				0.993105
				0.994372
				0.992613
				0.993876
				0.992172
				0.993407
				0.991865
				0.993044
				0.991763
				0.992855
				0.991921
				0.992893
				0.992375
				0.993197
				0.993135
				0.993788
				0.99419
				0.994662
				0.995504
				0.995796
				0.997024
				0.997149
				0.998684
				0.998664
				1.00042
				1.00028
				1.00215
				1.00193
				1.00384
				1.00355
				1.00541
				1.0051
				1.00685
				1.00654
				1.00811
				1.00782
				1.00918
				1.00893
				1.01004
				1.00985
				1.01069
				1.01058
				1.01113
				1.01109
				1.01135
				1.01141
				1.01135
				1.01151
				1.01113
				1.01141
				1.01069
				1.01109
				1.01004
				1.01058
				1.00918
				1.00985
				1.00811
				1.00893
				1.00685
				1.00782
				1.00541
				1.00654
				1.00384
				1.0051
				1.00215
				1.00355
				1.00042
				1.00193
				0.998684
				1.00028
				0.997024
				0.998664
				0.995504
				0.997149
				0.99419
				0.995796
				0.993135
				0.994662
				0.992375
				0.993788
				0.991921
				0.993197
				0.991763
				0.992893
				0.991865
				0.992855
				0.992172
				0.993044
				0.992613
				0.993407
				0.993105
				0.993876
				0.993547
				0.994372
				0.993815
				0.994797
				0.993752
				0.995021
				0.993141
				0.994856
				0.991725
				0.994044
				0.989313
				0.992296
				0.986071
				0.98951
				0.982782
				0.986126
				0.980668
				0.983242
				0.984702
				0.982816
				0.986834
				0.98397
				0.990044
				0.986859
				0.99304
				0.990211
				0.995104
				0.992953
				0.996204
				0.9947
				0.996624
				0.995593
				0.996651
				0.995915
				0.996477
				0.995905
				0.996223
				0.995721
				0.995966
				0.99547
				0.995764
				0.99523
				0.995662
				0.99506
				0.995698
				0.995009
				0.995896
				0.995114
				0.996273
				0.9954
				0.996831
				0.995878
				0.997557
				0.996545
				0.998429
				0.997381
				0.999414
				0.998357
				1.00047
				0.999433
				1.00156
				1.00057
				1.00264
				1.00171
				1.00369
				1.00283
				1.00466
				1.00389
				1.00554
				1.00487
				1.00631
				1.00573
				1.00696
				1.00648
				1.00749
				1.0071
				1.00788
				1.00758
				1.00815
				1.00793
				1.00828
				1.00813
				1.00828
				1.0082
				1.00815
				1.00813
				1.00788
				1.00793
				1.00749
				1.00758
				1.00696
				1.0071
				1.00631
				1.00648
				1.00554
				1.00573
				1.00466
				1.00487
				1.00369
				1.00389
				1.00264
				1.00283
				1.00156
				1.00171
				1.00047
				1.00057
				0.999414
				0.999433
				0.998429
				0.998357
				0.997557
				0.997381
				0.996831
				0.996545
				0.996273
				0.995878
				0.995896
				0.9954
				0.995698
				0.995114
				0.995662
				0.995009
				0.995764
				0.99506
				0.995966
				0.99523
				0.996223
				0.99547
				0.996477
				0.995721
				0.996651
				0.995905
				0.996624
				0.995915
				0.996204
				0.995593
				0.995104
				0.9947
				0.99304
				0.992953
				0.990044
				0.990211
				0.986834
				0.986859
				0.984702
				0.98397
				0.985575
				0.986711
				0.987666
				0.987803
				0.990784
				0.990472
				0.99366
				0.993428
				0.995634
				0.995682
				0.996719
				0.996989
				0.997201
				0.997582
				0.997345
				0.997766
				0.997318
				0.997749
				0.99722
				0.997648
				0.997113
				0.997532
				0.99704
				0.997441
				0.997034
				0.997408
				0.99712
				0.997456
				0.997317
				0.997603
				0.997632
				0.99786
				0.998065
				0.998229
				0.998608
				0.998706
				0.999242
				0.999277
				0.999945
				0.999924
				1.00069
				1.00062
				1.00145
				1.00134
				1.0022
				1.00207
				1.00291
				1.00277
				1.00357
				1.00343
				1.00417
				1.00403
				1.00468
				1.00457
				1.00512
				1.00502
				1.00547
				1.0054
				1.00574
				1.0057
				1.00591
				1.00591
				1.006
				1.00604
				1.006
				1.00608
				1.00591
				1.00604
				1.00574
				1.00591
				1.00547
				1.0057
				1.00512
				1.0054
				1.00468
				1.00502
				1.00417
				1.00457
				1.00357
				1.00403
				1.00291
				1.00343
				1.0022
				1.00277
				1.00145
				1.00207
				1.00069
				1.00134
				0.999945
				1.00062
				0.999242
				0.999924
				0.998608
				0.999277
				0.998065
				0.998706
				0.997632
				0.998229
				0.997317
				0.99786
				0.99712
				0.997603
				0.997034
				0.997456
				0.99704
				0.997408
				0.997113
				0.997441
				0.99722
				0.997532
				0.997318
				0.997648
				0.997345
				0.997749
				0.997201
				0.997766
				0.996719
				0.997582
				0.995634
				0.996989
				0.99366
				0.995682
				0.990784
				0.993428
				0.987666
				0.990472
				0.985575
				0.987803
				0.989163
				0.987654
				0.991005
				0.988705
				0.993655
				0.991258
				0.995961
				0.994052
				0.997419
				0.996159
				0.998141
				0.997386
				0.998428
				0.997977
				0.998508
				0.998214
				0.998504
				0.998281
				0.998478
				0.998277
				0.998462
				0.998255
				0.998479
				0.998248
				0.998543
				0.998278
				0.998666
				0.998362
				0.998856
				0.998512
				0.999115
				0.998734
				0.999441
				0.999029
				0.999828
				0.999393
				1.00026
				0.999817
				1.00073
				1.00029
				1.00122
				1.00078
				1.00171
				1.00129
				1.00218
				1.0018
				1.00264
				1.00228
				1.00305
				1.00273
				1.00342
				1.00314
				1.00375
				1.00351
				1.00402
				1.00382
				1.00423
				1.00407
				1.0044
				1.00427
				1.0045
				1.00441
				1.00456
				1.00449
				1.00456
				1.00452
				1.0045
				1.00449
				1.0044
				1.00441
				1.00423
				1.00427
				1.00402
				1.00407
				1.00375
				1.00382
				1.00342
				1.00351
				1.00305
				1.00314
				1.00264
				1.00273
				1.00218
				1.00228
				1.00171
				1.0018
				1.00122
				1.00129
				1.00073
				1.00078
				1.00026
				1.00029
				0.999828
				0.999817
				0.999441
				0.999393
				0.999115
				0.999029
				0.998856
				0.998734
				0.998666
				0.998512
				0.998543
				0.998362
				0.998479
				0.998278
				0.998462
				0.998248
				0.998478
				0.998255
				0.998504
				0.998277
				0.998508
				0.998281
				0.998428
				0.998214
				0.998141
				0.997977
				0.997419
				0.997386
				0.995961
				0.996159
				0.993655
				0.994052
				0.991005
				0.991258
				0.989163
				0.988705
				0.990049
				0.990866
				0.991788
				0.991751
				0.994268
				0.993853
				0.996401
				0.996052
				0.997741
				0.997604
				0.998421
				0.998436
				0.998723
				0.998803
				0.998849
				0.998949
				0.998905
				0.999008
				0.998938
				0.999041
				0.998975
				0.999075
				0.999033
				0.999128
				0.999122
				0.999208
				0.999249
				0.999323
				0.99942
				0.999477
				0.999635
				0.999673
				0.999893
				0.99991
				1.00019
				1.00018
				1.00051
				1.00049
				1.00085
				1.00081
				1.00121
				1.00115
				1.00155
				1.00149
				1.00189
				1.00182
				1.0022
				1.00213
				1.00249
				1.00242
				1.00274
				1.00269
				1.00297
				1.00291
				1.00315
				1.00311
				1.0033
				1.00327
				1.00341
				1.00339
				1.00348
				1.00348
				1.00352
				1.00353
				1.00352
				1.00355
				1.00348
				1.00353
				1.00341
				1.00348
				1.0033
				1.00339
				1.00315
				1.00327
				1.00297
				1.00311
				1.00274
				1.00291
				1.00249
				1.00269
				1.0022
				1.00242
				1.00189
				1.00213
				1.00155
				1.00182
				1.00121
				1.00149
				1.00085
				1.00115
				1.00051
				1.00081
				1.00019
				1.00049
				0.999893
				1.00018
				0.999635
				0.99991
				0.99942
				0.999673
				0.999249
				0.999477
				0.999122
				0.999323
				0.999033
				0.999208
				0.998975
				0.999128
				0.998938
				0.999075
				0.998905
				0.999041
				0.998849
				0.999008
				0.998723
				0.998949
				0.998421
				0.998803
				0.997741
				0.998436
				0.996401
				0.997604
				0.994268
				0.996052
				0.991788
				0.993853
				0.990049
				0.991751
				0.992708
				0.991627
				0.994098
				0.992454
				0.996018
				0.994406
				0.997592
				0.996431
				0.998523
				0.997851
				0.998972
				0.998621
				0.999176
				0.998985
				0.999284
				0.99916
				0.999362
				0.999259
				0.999436
				0.999334
				0.999518
				0.999406
				0.999616
				0.999487
				0.999732
				0.999586
				0.999871
				0.999706
				1.00003
				0.999851
				1.00022
				1.00002
				1.00043
				1.00022
				1.00065
				1.00044
				1.00089
				1.00067
				1.00113
				1.00092
				1.00137
				1.00117
				1.00161
				1.00142
				1.00183
				1.00166
				1.00204
				1.00188
				1.00222
				1.00208
				1.00239
				1.00227
				1.00253
				1.00243
				1.00265
				1.00256
				1.00274
				1.00267
				1.00281
				1.00275
				1.00285
				1.00281
				1.00288
				1.00285
				1.00288
				1.00286
				1.00285
				1.00285
				1.00281
				1.00281
				1.00274
				1.00275
				1.00265
				1.00267
				1.00253
				1.00256
				1.00239
				1.00243
				1.00222
				1.00227
				1.00204
				1.00208
				1.00183
				1.00188
				1.00161
				1.00166
				1.00137
				1.00142
				1.00113
				1.00117
				1.00089
				1.00092
				1.00065
				1.00067
				1.00043
				1.00044
				1.00022
				1.00022
				1.00003
				1.00002
				0.999871
				0.999851
				0.999732
				0.999706
				0.999616
				0.999586
				0.999518
				0.999487
				0.999436
				0.999406
				0.999362
				0.999334
				0.999284
				0.999259
				0.999176
				0.99916
				0.998972
				0.998985
				0.998523
				0.998621
				0.997592
				0.997851
				0.996018
				0.996431
				0.994098
				0.994406
				0.992708
				0.992454
				0.99322
				0.993746
				0.994504
				0.994388
				0.996271
				0.995877
				0.997719
				0.997376
				0.998592
				0.998396
				0.999042
				0.998947
				0.999278
				0.999229
				0.999429
				0.999398
				0.999548
				0.999528
				0.999657
				0.999645
				0.999767
				0.999761
				0.999882
				0.99988
				1.00001
				1.00001
				1.00014
				1.00014
				1.0003
				1.00029
				1.00046
				1.00045
				1.00063
				1.00062
				1.00082
				1.0008
				1.001
				1.00098
				1.00119
				1.00116
				1.00137
				1.00134
				1.00155
				1.00151
				1.00171
				1.00168
				1.00185
				1.00182
				1.00199
				1.00196
				1.0021
				1.00207
				1.0022
				1.00217
				1.00227
				1.00226
				1.00234
				1.00233
				1.00238
				1.00238
				1.00241
				1.00241
				1.00243
				1.00243
				1.00243
				1.00244
				1.00241
				1.00243
				1.00238
				1.00241
				1.00234
				1.00238
				1.00227
				1.00233
				1.0022
				1.00226
				1.0021
				1.00217
				1.00199
				1.00207
				1.00185
				1.00196
				1.00171
				1.00182
				1.00155
				1.00168
				1.00137
				1.00151
				1.00119
				1.00134
				1.001
				1.00116
				1.00082
				1.00098
				1.00063
				1.0008
				1.00046
				1.00062
				1.0003
				1.00045
				1.00014
				1.00029
				1.00001
				1.00014
				0.999882
				1.00001
				0.999767
				0.99988
				0.999657
				0.999761
				0.999548
				0.999645
				0.999429
				0.999528
				0.999278
				0.999398
				0.999042
				0.999229
				0.998592
				0.998947
				0.997719
				0.998396
				0.996271
				0.997376
				0.994504
				0.995877
				0.99322
				0.994388
				0.99456
				0.99382
				0.995521
				0.994414
				0.996849
				0.995806
				0.997969
				0.997243
				0.9987
				0.998276
				0.999142
				0.998897
				0.99943
				0.999265
				0.999645
				0.99951
				0.999822
				0.999697
				0.999978
				0.999855
				1.00012
				0.999999
				1.00026
				1.00014
				1.0004
				1.00027
				1.00054
				1.00041
				1.00069
				1.00055
				1.00083
				1.00069
				1.00098
				1.00084
				1.00112
				1.00099
				1.00126
				1.00114
				1.0014
				1.00128
				1.00152
				1.00142
				1.00164
				1.00155
				1.00174
				1.00166
				1.00183
				1.00176
				1.00191
				1.00185
				1.00198
				1.00193
				1.00203
				1.00199
				1.00207
				1.00204
				1.00211
				1.00208
				1.00213
				1.00211
				1.00215
				1.00213
				1.00215
				1.00214
				1.00215
				1.00215
				1.00215
				1.00214
				1.00213
				1.00213
				1.00211
				1.00211
				1.00207
				1.00208
				1.00203
				1.00204
				1.00198
				1.00199
				1.00191
				1.00193
				1.00183
				1.00185
				1.00174
				1.00176
				1.00164
				1.00166
				1.00152
				1.00155
				1.0014
				1.00142
				1.00126
				1.00128
				1.00112
				1.00114
				1.00098
				1.00099
				1.00083
				1.00084
				1.00069
				1.00069
				1.00054
				1.00055
				1.0004
				1.00041
				1.00026
				1.00027
				1.00012
				1.00014
				0.999978
				0.999999
				0.999822
				0.999855
				0.999645
				0.999697
				0.99943
				0.99951
				0.999142
				0.999265
				0.9987
				0.998897
				0.997969
				0.998276
				0.996849
				0.997243
				0.995521
				0.995806
				0.99456
				0.994414
			</DataArray>
			<DataArray type="Float64" Name="mach-number" Format="ascii">
				0.0143398
				0.0235706
				0.0401526
				0.0361071
				0.069453
				0.0612389
				0.10266
				0.0919024
				0.140023
				0.127113
				0.181315
				0.166469
				0.226021
				0.209441
				0.27345
				0.255347
				0.32276
				0.303357
				0.372945
				0.352503
				0.422784
				0.401625
				0.470821
				0.449373
				0.515325
				0.49418
				0.554341
				0.534277
				0.585761
				0.567796
				0.607638
				0.5929
				0.618526
				0.608141
				0.617906
				0.612704
				0.606255
				0.60666
				0.584908
				0.590831
				0.555555
				0.566583
				0.519908
				0.535404
				0.479454
				0.498728
				0.435387
				0.45778
				0.388634
				0.41356
				0.339881
				0.36688
				0.289654
				0.318377
				0.23835
				0.268605
				0.186282
				0.218087
				0.133728
				0.167457
				0.0810261
				0.117893
				0.0295965
				0.0730454
				0.0295965
				0.0496875
				0.0810262
				0.0730454
				0.133728
				0.117893
				0.186282
				0.167457
				0.23835
				0.218087
				0.289655
				0.268605
				0.339882
				0.318377
				0.388634
				0.36688
				0.435387
				0.41356
				0.479454
				0.45778
				0.519908
				0.498728
				0.555556
				0.535404
				0.584908
				0.566583
				0.606255
				0.590831
				0.617906
				0.60666
				0.618526
				0.612704
				0.607638
				0.608141
				0.585761
				0.5929
				0.554341
				0.567796
				0.515324
				0.534277
				0.47082
				0.49418
				0.422784
				0.449373
				0.372945
				0.401625
				0.32276
				0.352502
				0.273449
				0.303357
				0.226021
				0.255347
				0.181315
				0.209441
				0.140023
				0.166468
				0.10266
				0.127113
				0.069453
				0.0919024
				0.0401526
				0.0612388
				0.0143397
				0.0361071
				0.0570716
				0.0365846
				0.0733215
				0.0470311
				0.0997224
				0.070939
				0.132288
				0.101638
				0.169225
				0.13714
				0.209493
				0.176556
				0.252228
				0.219123
				0.296553
				0.264019
				0.341529
				0.310342
				0.386129
				0.357098
				0.429233
				0.403183
				0.469615
				0.447376
				0.505935
				0.488315
				0.536778
				0.524502
				0.560729
				0.554344
				0.576556
				0.576285
				0.583426
				0.589053
				0.581107
				0.591945
				0.570003
				0.585019
				0.551034
				0.569054
				0.525386
				0.5453
				0.494298
				0.515166
				0.458921
				0.479993
				0.420261
				0.440938
				0.379184
				0.398957
				0.336456
				0.354828
				0.292813
				0.309205
				0.249073
				0.262692
				0.206341
				0.215957
				0.16645
				0.169961
				0.132912
				0.126606
				0.11229
				0.0908044
				0.11229
				0.0750984
				0.132912
				0.0908044
				0.16645
				0.126606
				0.206341
				0.169961
				0.249074
				0.215957
				0.292813
				0.262692
				0.336456
				0.309204
				0.379184
				0.354828
				0.420261
				0.398957
				0.458921
				0.440938
				0.494298
				0.479993
				0.525386
				0.515166
				0.551034
				0.5453
				0.570003
				0.569054
				0.581107
				0.585019
				0.583426
				0.591945
				0.576556
				0.589053
				0.560729
				0.576285
				0.536778
				0.554344
				0.505935
				0.524502
				0.469615
				0.488315
				0.429233
				0.447376
				0.386129
				0.403183
				0.341529
				0.357098
				0.296553
				0.310342
				0.252228
				0.264019
				0.209493
				0.219123
				0.169225
				0.176556
				0.132288
				0.137139
				0.0997223
				0.101637
				0.0733214
				0.0709389
				0.0570715
				0.047031
				0.0728234
				0.0894284
				0.0886118
				0.0974019
				0.115076
				0.118581
				0.147972
				0.148143
				0.184908
				0.182598
				0.224426
				0.219893
				0.265447
				0.258761
				0.307021
				0.298257
				0.348241
				0.337547
				0.38822
				0.375835
				0.426065
				0.412332
				0.460846
				0.446225
				0.49157
				0.476646
				0.517169
				0.50266
				0.536557
				0.523292
				0.548765
				0.53762
				0.553129
				0.544922
				0.549466
				0.544836
				0.538131
				0.537456
				0.519918
				0.523317
				0.495875
				0.503262
				0.467111
				0.478288
				0.434677
				0.449405
				0.399513
				0.417571
				0.362454
				0.383665
				0.324271
				0.348515
				0.28575