<VTKFile type="UnstructuredGrid" version="0.1" byte_order="LittleEndian">
<UnstructuredGrid>
	<Piece NumberOfPoints="80" NumberOfCells="128">
		<CellData Scalars="density" Vectors="velocity">
			<DataArray type="Float64" Name="density" Format="ascii">
				0.900506
				0.911825
				0.904074
				0.918633
				0.906998
				0.928627
				0.919681
				0.937574
				0.956571
				0.959508
				1.01112
				0.999751
				1.06131
				1.04363
				1.09009
				1.07575
				1.09009
				1.08743
				1.06131
				1.07575
				1.01112
				1.04363
				0.956571
				0.999751
				0.919681
				0.959508
				0.906998
				0.937574
				0.904074
				0.928627
				0.900506
				0.918633
				0.96014
				0.961871
				0.971711
				0.966577
				0.978373
				0.973337
				0.983901
				0.977567
				0.996909
				0.984801
				1.01527
				0.997472
				1.03147
				1.01122
				1.04056
				1.02071
				1.04056
				1.02393
				1.03147
				1.02071
				1.01527
				1.01122
				0.996909
				0.997472
				0.983901
				0.984801
				0.978373
				0.977567
				0.971711
				0.973337
				0.96014
				0.966577
				0.984201
				0.982802
				0.989933
				0.988004
				0.99452
				0.993859
				0.997615
				0.996111
				1.00078
				0.999318
				1.00377
				1.00455
				1.00583
				1.0099
				1.00676
				1.01355
				1.00676
				1.01481
				1.00583
				1.01355
				1.00377
				1.0099
				1.00078
				1.00455
				0.997615
				0.999318
				0.99452
				0.996111
				0.989933
				0.993859
				0.984201
				0.988004
				0.995538
				0.9936
				0.998334
				0.995443
				0.999527
				0.998225
				1.00036
				0.99998
				1.00169
				1.00124
				1.00315
				1.00219
				1.00429
				1.00275
				1.00487
				1.00299
				1.00487
				1.00305
				1.00429
				1.00299
				1.00315
				1.00275
				1.00169
				1.00219
				1.00036
				1.00124
				0.999527
				0.99998
				0.998334
				0.998225
				0.995538
				0.995443
			</DataArray>
			<DataArray type="Float64" Name="mach-number" Format="ascii">
				0.213005
				0.093783
				0.304436
				0.184994
				0.403879
				0.319844
				0.459404
				0.425589
				0.447778
				0.464403
				0.381374
				0.422825
				0.295332
				0.322504
				0.230245
				0.197192
				0.230245
				0.117818
				0.295332
				0.197192
				0.381374
				0.322504
				0.447778
				0.422825
				0.459404
				0.464403
				0.403879
				0.425589
				0.304436
				0.319844
				0.213006
				0.184994
				0.280389
				0.276633
				0.337996
				0.307497
				0.390977
				0.362415
				0.41699
				0.397136
				0.409091
				0.400842
				0.374155
				0.379011
				0.332784
				0.346698
				0.305648
				0.320677
				0.305648
				0.311028
				0.332784
				0.320677
				0.374155
				0.346698
				0.409091
				0.379011
				0.41699
				0.400842
				0.390977
				0.397136
				0.337996
				0.362415
				0.280389
				0.307497
				0.344018
				0.341776
				0.365949
				0.358701
				0.38237
				0.381543
				0.385306
				0.391359
				0.379604
				0.390595
				0.370868
				0.38192
				0.363545
				0.370867
				0.359733
				0.362743
				0.359733
				0.359877
				0.363545
				0.362743
				0.370868
				0.370867
				0.379604
				0.38192
				0.385306
				0.390595
				0.38237
				0.391359
				0.365949
				0.381543
				0.344018
				0.358701
				0.374254
				0.369868
				0.380833
				0.374559
				0.383569
				0.380946
				0.38348
				0.382576
				0.381799
				0.381072
				0.379366
				0.378658
				0.377342
				0.376573
				0.376286
				0.375308
				0.376286
				0.374901
				0.377342
				0.375308
				0.379366
				0.376573
				0.381799
				0.378658
				0.38348
				0.381072
				0.383569
				0.382576
				0.380833
				0.380946
				0.374254
				0.374559
			</DataArray>
			<DataArray type="Float64" Name="pressure" Format="ascii">
				4.55511
				4.68312
				4.50371
				4.67021
				4.45282
				4.63637
				4.50389
				4.62385
				4.73892
				4.73601
				5.1021
				5.007
				5.44034
				5.32807
				5.63504
				5.57265
				5.63504
				5.66257
				5.44034
				5.57265
				5.1021
				5.32807
				4.73892
				5.007
				4.50389
				4.73601
				4.45282
				4.62385
				4.50371
				4.63637
				4.55511
				4.67021
				4.86252
				4.85593
				4.86076
				4.8498
				4.85184
				4.83556
				4.86859
				4.83462
				4.95086
				4.87487
				5.07743
				4.95762
				5.19188
				5.04814
				5.25638
				5.11037
				5.25638
				5.13147
				5.19188
				5.11037
				5.07743
				5.04814
				4.95086
				4.95762
				4.86859
				4.87487
				4.85184
				4.83462
				4.86076
				4.83556
				4.86252
				4.8498
				4.90564
				4.9196
				4.91215
				4.9227
				4.92141
				4.9254
				4.93526
				4.92912
				4.95444
				4.94746
				4.97378
				4.98173
				4.98735
				5.01768
				4.99355
				5.04241
				4.99355
				5.05096
				4.98735
				5.04241
				4.97378
				5.01768
				4.95444
				4.98173
				4.93526
				4.94746
				4.92141
				4.92912
				4.91215
				4.9254
				4.90564
				4.9227
				4.93962
				4.92646
				4.94224
				4.93047
				4.94467
				4.93834
				4.94936
				4.94627
				4.95785
				4.9539
				4.96753
				4.96019
				4.9751
				4.96412
				4.97904
				4.96591
				4.97904
				4.96637
				4.9751
				4.96591
				4.96753
				4.96412
				4.95785
				4.96019
				4.94936
				4.9539
				4.94467
				4.94627
				4.94224
				4.93834
				4.93962
				4.93047
			</DataArray>
			<DataArray type="Float64" Name="velocity" NumberOfComponents="3" Format="ascii">
				0.558783 -0.0952347 0
				0.251478 -9.25179e-08 0
				0.777547 -0.204445 0
				0.398255 -0.291495 0
				1.0481 -0.150402 0
				0.740531 -0.408255 0
				1.20247 0.0324841 0
				1.08339 -0.277181 0
				1.15552 0.235414 0
				1.21989 0.0468933 0
				0.957809 0.331795 0
				1.06143 0.356234 0
				0.741723 0.275291 0
				0.732424 0.45492 0
				0.610412 0.105143 0
				0.434754 0.30495 0
				0.610412 -0.105143 0
				0.318114 -6.02498e-08 0
				0.741723 -0.275291 0
				0.434754 -0.30495 0
				0.957809 -0.331795 0
				0.732424 -0.45492 0
				1.15552 -0.235414 0
				1.06143 -0.356234 0
				1.20247 -0.0324842 0
				1.21989 -0.0468933 0
				1.0481 0.150402 0
				1.08339 0.277181 0
				0.777548 0.204445 0
				0.740531 0.408255 0
				0.558784 0.0952343 0
				0.398255 0.291495 0
				0.743928 -0.0631228 0
				0.735438 -3.2193e-08 0
				0.886231 -0.121027 0
				0.811337 -0.0769932 0
				1.02678 -0.0837053 0
				0.953243 -0.0697057 0
				1.09749 0.00897513 0
				1.04499 0.00218444 0
				1.07298 0.110884 0
				1.05174 0.0856663 0
				0.977006 0.16002 0
				0.990555 0.135459 0
				0.873345 0.132935 0
				0.907495 0.12856 0
				0.811246 0.0506088 0
				0.845654 0.0752962 0
				0.811246 -0.0506088 0
				0.823855 2.49523e-09 0
				0.873345 -0.132935 0
				0.845654 -0.0752962 0
				0.977006 -0.16002 0
				0.907495 -0.12856 0
				1.07298 -0.110884 0
				0.990555 -0.135459 0
				1.09749 -0.00897513 0
				1.05174 -0.0856662 0
				1.02678 0.0837053 0
				1.04499 -0.00218444 0
				0.886231 0.121027 0
				0.953243 0.0697057 0
				0.743928 0.0631227 0
				0.811337 0.0769932 0
				0.908598 -0.0172788 0
				0.904768 -6.47767e-08 0
				0.96419 -0.0257672 0
				0.946689 -0.0358798 0
				1.00643 -0.00272444 0
				1.00469 -0.0247098 0
				1.01372 0.0241721 0
				1.03007 0.00206572 0
				0.998552 0.0402052 0
				1.02793 0.0285456 0
				0.975951 0.0408824 0
				1.00537 0.0440042 0
				0.95741 0.0288213 0
				0.977262 0.0411595 0
				0.947897 0.0101865 0
				0.957027 0.0239116 0
				0.947897 -0.0101865 0
				0.949975 -2.3884e-09 0
				0.95741 -0.0288213 0
				0.957027 -0.0239116 0
				0.975951 -0.0408824 0
				0.977262 -0.0411595 0
				0.998552 -0.0402052 0
				1.00537 -0.0440042 0
				1.01372 -0.0241721 0
				1.02793 -0.0285456 0
				1.00643 0.00272444 0
				1.03007 -0.00206572 0
				0.96419 0.0257672 0
				1.00469 0.0247098 0
				0.908598 0.0172787 0
				0.946689 0.0358799 0
				0.98636 -0.00756565 0
				0.974479 -4.31669e-09 0
				1.00254 -0.00954171 0
				0.986277 -0.00964854 0
				1.00943 -0.00270492 0
				1.00253 -0.00545251 0
				1.00925 0.00336063 0
				1.00675 0.00334239 0
				1.005 0.00773794 0
				1.0029 0.00910011 0
				0.998833 0.00866435 0
				0.996693 0.0105901 0
				0.993717 0.00633346 0
				0.991337 0.00861546 0
				0.991056 0.0022708 0
				0.988092 0.0046761 0
				0.991056 -0.0022708 0
				0.987047 2.18269e-09 0
				0.993717 -0.00633346 0
				0.988092 -0.00467611 0
				0.998833 -0.00866434 0
				0.991337 -0.00861546 0
				1.005 -0.00773794 0
				0.996693 -0.0105901 0
				1.00925 -0.00336063 0
				1.0029 -0.00910011 0
				1.00943 0.00270492 0
				1.00675 -0.00334239 0
				1.00254 0.00954173 0
				1.00253 0.00545251 0
				0.98636 0.0075656 0
				0.986277 0.00964853 0
			</DataArray>
		</CellData>
		<Points>
		<DataArray type="Float64" NumberOfComponents="3" Format="ascii">
			0.5 0 0
			0.46194 0.191342 0
			0.353553 0.353553 0
			0.191342 0.46194 0
			-2.18557e-08 0.5 0
			-0.191342 0.46194 0
			-0.353553 0.353553 0
			-0.46194 0.191342 0
			-0.5 -4.37114e-08 0
			-0.46194 -0.191342 0
			-0.353553 -0.353553 0
			-0.191342 -0.46194 0
			6.55671e-08 -0.5 0
			0.191342 -0.46194 0
			0.353553 -0.353553 0
			0.46194 -0.191342 0
			0.884503 0.175939 0
			0.749846 0.501031 0
			0.501031 0.749846 0
			0.175939 0.884503 0
			-0.175939 0.884503 0
			-0.501031 0.749846 0
			-0.749846 0.501031 0
			-0.884503 0.175939 0
			-0.884503 -0.175939 0
			-0.749846 -0.501031 0
			-0.501031 -0.749846 0
			-0.175939 -0.884503 0
			0.175939 -0.884503 0
			0.501031 -0.749846 0
			0.749846 -0.501031 0
			0.884503 -0.175938 0
			2.20148 0 0
			2.0339 0.842468 0
			1.55668 1.55668 0
			0.842468 2.0339 0
			-9.62295e-08 2.20148 0
			-0.842468 2.0339 0
			-1.55668 1.55668 0
			-2.0339 0.842468 0
			-2.20148 -1.92459e-07 0
			-2.0339 -0.842468 0
			-1.55668 -1.55668 0
			-0.842468 -2.0339 0
			2.88689e-07 -2.20148 0
			0.842468 -2.0339 0
			1.55668 -1.55668 0
			2.0339 -0.842468 0
			6.28184 1.24954 0
			5.32549 3.55838 0
			3.55838 5.32549 0
			1.24954 6.28184 0
			-1.24954 6.28184 0
			-3.55838 5.32549 0
			-5.32549 3.55838 0
			-6.28184 1.24954 0
			-6.28184 -1.24954 0
			-5.32549 -3.55838 0
			-3.55838 -5.32549 0
			-1.24954 -6.28184 0
			1.24954 -6.28184 0
			3.55838 -5.32549 0
			5.32549 -3.55838 0
			6.28184 -1.24953 0
			20.0001 0 0
			18.4777 7.6537 0
			14.1422 14.1422 0
			7.6537 18.4777 0
			-8.74231e-07 20.0001 0
			-7.6537 18.4777 0
			-14.1422 14.1422 0
			-18.4777 7.65369 0
			-20.0001 -1.74846e-06 0
			-18.4777 -7.6537 0
			-14.1422 -14.1422 0
			-7.65369 -18.4777 0
			2.62269e-06 -20.0001 0
			7.6537 -18.4777 0
			14.1422 -14.1422 0
			18.4777 -7.65369 0
		</DataArray>
		</Points>
		<Cells>
			<DataArray type="UInt32" Name="connectivity" Format="ascii">
				0 16 1
				0 31 16
				1 17 2
				1 16 17
				2 18 3
				2 17 18
				3 19 4
				3 18 19
				4 20 5
				4 19 20
				5 21 6
				5 20 21
				6 22 7
				6 21 22
				7 23 8
				7 22 23
				8 24 9
				8 23 24
				9 25 10
				9 24 25
				10 26 11
				10 25 26
				11 27 12
				11 26 27
				12 28 13
				12 27 28
				13 29 14
				13 28 29
				14 30 15
				14 29 30
				15 31 0
				15 30 31
				16 32 33
				16 31 32
				17 33 34
				17 16 33
				18 34 35
				18 17 34
				19 35 36
				19 18 35
				20 36 37
				20 19 36
				21 37 38
				21 20 37
				22 38 39
				22 21 38
				23 39 40
				23 22 39
				24 40 41
				24 23 40
				25 41 42
				25 24 41
				26 42 43
				26 25 42
				27 43 44
				27 26 43
				28 44 45
				28 27 44
				29 45 46
				29 28 45
				30 46 47
				30 29 46
				31 47 32
				31 30 47
				32 48 33
				32 63 48
				33 49 34
				33 48 49
				34 50 35
				34 49 50
				35 51 36
				35 50 51
				36 52 37
				36 51 52
				37 53 38
				37 52 53
				38 54 39
				38 53 54
				39 55 40
				39 54 55
				40 56 41
				40 55 56
				41 57 42
				41 56 57
				42 58 43
				42 57 58
				43 59 44
				43 58 59
				44 60 45
				44 59 60
				45 61 46
				45 60 61
				46 62 47
				46 61 62
				47 63 32
				47 62 63
				48 64 65
				48 63 64
				49 65 66
				49 48 65
				50 66 67
				50 49 66
				51 67 68
				51 50 67
				52 68 69
				52 51 68
				53 69 70
				53 52 69
				54 70 71
				54 53 70
				55 71 72
				55 54 71
				56 72 73
				56 55 72
				57 73 74
				57 56 73
				58 74 75
				58 57 74
				59 75 76
				59 58 75
				60 76 77
				60 59 76
				61 77 78
				61 60 77
				62 78 79
				62 61 78
				63 79 64
				63 62 79
			</DataArray>
			<DataArray type="UInt32" Name="offsets" Format="ascii">
				3
				6
				9
				12
				15
				18
				21
				24
				27
				30
				33
				36
				39
				42
				45
				48
				51
				54
				57
				60
				63
				66
				69
				72
				75
				78
				81
				84
				87
				90
				93
				96
				99
				102
				105
				108
				111
				114
				117
				120
				123
				126
				129
				132
				135
				138
				141
				144
				147
				150
				153
				156
				159
				162
				165
				168
				171
				174
				177
				180
				183
				186
				189
				192
				195
				198
				201
				204
				207
				210
				213
				216
				219
				222
				225
				228
				231
				234
				237
				240
				243
				246
				249
				252
				255
				258
				261
				264
				267
				270
				273
				276
				279
				282
				285
				288
				291
				294
				297
				300
				303
				306
				309
				312
				315
				318
				321
				324
				327
				330
				333
				336
				339
				342
				345
				348
				351
				354
				357
				360
				363
				366
				369
				372
				375
				378
				381
				384
			</DataArray>
			<DataArray type="Int32" Name="types" Format="ascii">
				5
				5
				5
				5
				5
				5
				5
				5
				5
				5
				5
				5
				5
				5
				5
				5
				5
				5
				5
				5
				5
				5
				5
				5
				5
				5
				5
				5
				5
				5
				5
				5
				5
				5
				5
				5
				5
				5
				5
				5
				5
				5
				5
				5
				5
				5
				5
				5
				5
				5
				5
				5
				5
				5
				5
				5
				5
				5
				5
				5
				5
				5
				5
				5
				5
				5
				5
				5
				5
				5
				5
				5
				5
				5
				5
				5
				5
				5
				5
				5
				5
				5
				5
				5
				5
				5
				5
				5
				5
				5
				5
				5
				5
				5
				5
				5
				5
				5
				5
				5
				5
				5
				5
				5
				5
				5
				5
				5
				5
				5
				5
				5
				5
				5
				5
				5
				5
				5
				5
				5
				5
				5
				5
				5
				5
				5
				5
				5
			</DataArray>
		</Cells>
	</Piece>
</UnstructuredGrid>
</VTKFile>