<VTKFile type="UnstructuredGrid" version="0.1" byte_order="LittleEndian">
<UnstructuredGrid>
	<Piece NumberOfPoints="1088" NumberOfCells="2048">
		<CellData Scalars="density" Vectors="velocity">
			<DataArray type="Float64" Name="density" Format="ascii">
				0.976876
				0.976845
				0.976287
				0.976601
				0.974718
				0.975687
				0.971595
				0.973654
				0.966375
				0.969981
				0.958622
				0.964219
				0.948034
				0.956035
				0.934503
				0.945237
				0.918162
				0.931832
				0.899446
				0.916077
				0.879084
				0.898504
				0.858106
				0.87993
				0.837833
				0.86144
				0.819801
				0.844361
				0.80576
				0.830198
				0.797367
				0.820509
				0.795955
				0.816631
				0.802
				0.819349
				0.815076
				0.828626
				0.833925
				0.843664
				0.857029
				0.863195
				0.882845
				0.885847
				0.910008
				0.910316
				0.937358
				0.935466
				0.963903
				0.960324
				0.98883
				0.984061
				1.01144
				1.00598
				1.03115
				1.0255
				1.04748
				1.04213
				1.06006
				1.05546
				1.0686
				1.06521
				1.07292
				1.07114
				1.07292
				1.07313
				1.0686
				1.07114
				1.06006
				1.06521
				1.04748
				1.05546
				1.03115
				1.04213
				1.01144
				1.0255
				0.98883
				1.00598
				0.963903
				0.984062
				0.937358
				0.960324
				0.910008
				0.935466
				0.882845
				0.910316
				0.857029
				0.885847
				0.833925
				0.863195
				0.815076
				0.843664
				0.802
				0.828626
				0.795955
				0.819349
				0.797367
				0.816631
				0.80576
				0.820509
				0.819801
				0.830198
				0.837833
				0.844362
				0.858106
				0.86144
				0.879084
				0.87993
				0.899446
				0.898504
				0.918162
				0.916077
				0.934504
				0.931832
				0.948034
				0.945237
				0.958622
				0.956035
				0.966375
				0.964219
				0.971595
				0.969981
				0.974718
				0.973654
				0.976287
				0.975687
				0.976876
				0.976601
				0.979427
				0.979696
				0.979334
				0.979658
				0.97881
				0.979305
				0.977349
				0.978084
				0.974471
				0.97544
				0.969807
				0.97095
				0.963095
				0.964306
				0.954221
				0.955327
				0.943268
				0.94401
				0.930552
				0.930575
				0.916631
				0.915479
				0.902288
				0.899425
				0.888519
				0.883351
				0.876482
				0.868415
				0.867417
				0.855956
				0.862487
				0.847374
				0.862523
				0.843898
				0.867798
				0.846254
				0.877951
				0.854437
				0.892138
				0.867724
				0.909289
				0.884977
				0.928321
				0.904938
				0.94825
				0.926428
				0.968231
				0.948426
				0.987554
				0.970072
				1.00563
				0.990655
				1.02196
				1.00959
				1.03615
				1.02638
				1.04788
				1.04063
				1.05689
				1.05204
				1.063
				1.06035
				1.06608
				1.06541
				1.06608
				1.06711
				1.063
				1.06541
				1.05689
				1.06035
				1.04788
				1.05204
				1.03615
				1.04063
				1.02196
				1.02638
				1.00563
				1.00959
				0.987554
				0.990655
				0.968231
				0.970072
				0.94825
				0.948426
				0.928321
				0.926428
				0.909289
				0.904938
				0.892138
				0.884978
				0.877951
				0.867724
				0.867798
				0.854437
				0.862523
				0.846254
				0.862487
				0.843898
				0.867417
				0.847374
				0.876482
				0.855956
				0.888519
				0.868415
				0.902288
				0.883351
				0.916631
				0.899425
				0.930553
				0.915479
				0.943268
				0.930575
				0.954221
				0.94401
				0.963095
				0.955327
				0.969807
				0.964306
				0.974471
				0.97095
				0.977348
				0.97544
				0.97881
				0.978084
				0.979334
				0.979305
				0.979427
				0.979658
				0.982262
				0.982183
				0.982521
				0.98239
				0.982538
				0.982797
				0.981682
				0.98288
				0.979484
				0.982065
				0.975646
				0.979903
				0.969984
				0.976098
				0.962456
				0.970503
				0.953188
				0.963154
				0.942487
				0.954279
				0.930835
				0.944285
				0.918887
				0.933738
				0.907458
				0.923347
				0.897507
				0.913933
				0.890068
				0.906394
				0.886109
				0.901604
				0.886333
				0.900273
				0.890974
				0.902785
				0.899739
				0.909089
				0.911922
				0.918736
				0.926608
				0.931008
				0.942862
				0.945086
				0.959828
				0.960176
				0.976774
				0.975569
				0.993092
				0.990661
				1.00829
				1.00496
				1.02196
				1.01805
				1.0338
				1.02961
				1.04354
				1.03939
				1.051
				1.04719
				1.05605
				1.05285
				1.0586
				1.05629
				1.0586
				1.05745
				1.05605
				1.05629
				1.051
				1.05285
				1.04354
				1.04719
				1.0338
				1.03939
				1.02196
				1.02961
				1.00829
				1.01805
				0.993092
				1.00496
				0.976774
				0.990661
				0.959828
				0.975569
				0.942862
				0.960176
				0.926608
				0.945086
				0.911922
				0.931007
				0.899739
				0.918736
				0.890974
				0.909089
				0.886333
				0.902785
				0.886109
				0.900273
				0.890068
				0.901604
				0.897507
				0.906394
				0.907458
				0.913933
				0.918887
				0.923347
				0.930836
				0.933739
				0.942487
				0.944285
				0.953188
				0.954279
				0.962456
				0.963154
				0.969984
				0.970503
				0.975646
				0.976098
				0.979484
				0.979903
				0.981682
				0.982065
				0.982538
				0.98288
				0.982521
				0.982797
				0.982262
				0.98239
				0.984486
				0.984092
				0.985346
				0.984497
				0.986516
				0.985353
				0.987223
				0.985889
				0.986854
				0.985454
				0.985079
				0.983701
				0.981786
				0.980477
				0.977044
				0.975763
				0.971066
				0.969669
				0.964176
				0.96243
				0.956779
				0.954385
				0.949356
				0.945985
				0.94246
				0.937781
				0.93669
				0.930419
				0.932653
				0.924605
				0.930879
				0.921024
				0.931723
				0.920229
				0.935282
				0.922513
				0.941376
				0.927833
				0.949596
				0.935834
				0.959399
				0.945943
				0.970202
				0.957499
				0.981454
				0.969852
				0.992671
				0.982414
				1.00344
				0.994689
				1.01345
				1.00627
				1.02241
				1.01684
				1.03015
				1.02613
				1.03649
				1.03396
				1.04134
				1.04019
				1.04461
				1.0447
				1.04626
				1.04744
				1.04626
				1.04836
				1.04461
				1.04744
				1.04134
				1.0447
				1.03649
				1.04019
				1.03015
				1.03396
				1.02241
				1.02613
				1.01345
				1.01684
				1.00344
				1.00627
				0.992671
				0.994689
				0.981454
				0.982414
				0.970202
				0.969852
				0.959399
				0.957499
				0.949596
				0.945943
				0.941376
				0.935834
				0.935282
				0.927834
				0.931723
				0.922513
				0.930879
				0.920229
				0.932654
				0.921024
				0.93669
				0.924605
				0.94246
				0.93042
				0.949357
				0.937781
				0.956779
				0.945985
				0.964176
				0.954385
				0.971066
				0.96243
				0.977044
				0.96967
				0.981786
				0.975763
				0.985079
				0.980477
				0.986854
				0.983701
				0.987223
				0.985454
				0.986516
				0.985889
				0.985346
				0.985353
				0.984486
				0.984497
				0.985072
				0.985448
				0.986328
				0.986212
				0.987978
				0.988059
				0.989021
				0.989965
				0.988902
				0.990997
				0.987473
				0.990711
				0.984778
				0.989047
				0.980963
				0.986151
				0.976241
				0.982263
				0.970879
				0.977661
				0.965191
				0.972647
				0.959546
				0.967544
				0.954365
				0.962711
				0.950107
				0.958535
				0.947227
				0.955415
				0.946116
				0.953713
				0.947029
				0.953707
				0.950026
				0.955529
				0.954963
				0.959139
				0.961526
				0.964337
				0.9693
				0.970799
				0.977831
				0.978142
				0.98669
				0.985973
				0.995493
				0.993926
				1.00392
				1.00169
				1.01172
				1.009
				1.01869
				1.01565
				1.02467
				1.02149
				1.02957
				1.02639
				1.0333
				1.03028
				1.03581
				1.03309
				1.03708
				1.03479
				1.03708
				1.03536
				1.03581
				1.03479
				1.0333
				1.03309
				1.02957
				1.03028
				1.02467
				1.02639
				1.01869
				1.02149
				1.01172
				1.01565
				1.00392
				1.009
				0.995493
				1.00169
				0.98669
				0.993926
				0.977831
				0.985973
				0.969299
				0.978142
				0.961526
				0.970799
				0.954963
				0.964337
				0.950026
				0.959139
				0.947029
				0.955529
				0.946116
				0.953707
				0.947227
				0.953713
				0.950107
				0.955415
				0.954365
				0.958535
				0.959546
				0.962711
				0.965191
				0.967544
				0.970879
				0.972647
				0.976241
				0.977661
				0.980963
				0.982263
				0.984778
				0.986151
				0.987473
				0.989047
				0.988902
				0.990711
				0.989021
				0.990997
				0.987978
				0.989965
				0.986328
				0.988059
				0.985072
				0.986212
				0.985883
				0.984814
				0.98785
				0.985827
				0.990638
				0.988192
				0.992855
				0.990505
				0.993766
				0.991766
				0.993316
				0.99172
				0.991742
				0.990483
				0.989334
				0.98827
				0.986355
				0.985312
				0.983043
				0.981839
				0.979626
				0.978087
				0.976337
				0.974309
				0.973425
				0.970777
				0.971143
				0.967784
				0.96973
				0.965622
				0.96938
				0.964553
				0.970212
				0.964765
				0.972243
				0.966342
				0.975385
				0.969244
				0.979464
				0.973315
				0.984245
				0.978314
				0.989469
				0.983953
				0.994881
				0.989938
				1.00025
				0.995994
				1.00539
				1.00188
				1.01013
				1.00741
				1.01435
				1.01242
				1.01798
				1.01681
				1.02094
				1.02048
				1.02319
				1.02338
				1.0247
				1.02548
				1.02546
				1.02675
				1.02546
				1.02717
				1.0247
				1.02675
				1.02319
				1.02548
				1.02094
				1.02338
				1.01798
				1.02048
				1.01435
				1.01681
				1.01013
				1.01242
				1.00539
				1.00741
				1.00025
				1.00188
				0.994881
				0.995994
				0.989469
				0.989938
				0.984245
				0.983953
				0.979464
				0.978314
				0.975385
				0.973315
				0.972243
				0.969244
				0.970212
				0.966342
				0.96938
				0.964765
				0.96973
				0.964553
				0.971143
				0.965622
				0.973425
				0.967784
				0.976337
				0.970777
				0.979626
				0.974309
				0.983043
				0.978087
				0.986355
				0.981839
				0.989334
				0.985312
				0.991742
				0.98827
				0.993316
				0.990483
				0.993766
				0.99172
				0.992855
				0.991766
				0.990638
				0.990505
				0.98785
				0.988192
				0.985883
				0.985827
				0.984802
				0.985425
				0.987204
				0.986767
				0.990448
				0.989929
				0.992897
				0.993098
				0.993957
				0.995019
				0.993783
				0.995509
				0.992687
				0.994889
				0.990942
				0.993518
				0.988768
				0.991668
				0.986355
				0.989542
				0.983884
				0.987309
				0.981535
				0.985128
				0.979494
				0.983155
				0.977947
				0.981554
				0.977061
				0.980476
				0.976969
				0.980052
				0.977743
				0.980371
				0.979386
				0.981464
				0.981826
				0.983302
				0.984933
				0.985794
				0.988534
				0.988805
				0.99244
				0.992175
				0.996465
				0.995735
				1.00044
				0.999328
				1.00423
				1.00281
				1.00771
				1.00608
				1.01081
				1.00904
				1.01345
				1.01161
				1.01561
				1.01377
				1.01724
				1.01547
				1.01834
				1.0167
				1.01889
				1.01744
				1.01889
				1.01769
				1.01834
				1.01744
				1.01724
				1.0167
				1.01561
				1.01547
				1.01345
				1.01377
				1.01081
				1.01161
				1.00771
				1.00904
				1.00423
				1.00608
				1.00044
				1.00281
				0.996465
				0.999328
				0.99244
				0.995735
				0.988535
				0.992175
				0.984933
				0.988805
				0.981826
				0.985794
				0.979386
				0.983302
				0.977743
				0.981464
				0.976969
				0.980371
				0.977061
				0.980052
				0.977947
				0.980476
				0.979494
				0.981554
				0.981535
				0.983155
				0.983884
				0.985128
				0.986355
				0.987309
				0.988768
				0.989542
				0.990942
				0.991668
				0.992687
				0.993518
				0.993783
				0.994889
				0.993957
				0.995508
				0.992897
				0.995019
				0.990448
				0.993098
				0.987204
				0.989929
				0.984802
				0.986767
				0.985873
				0.984367
				0.98868
				0.985942
				0.992417
				0.989528
				0.995179
				0.99292
				0.996413
				0.994892
				0.996476
				0.995497
				0.995816
				0.995164
				0.994734
				0.994235
				0.99342
				0.992937
				0.992005
				0.991434
				0.990598
				0.989861
				0.989303
				0.98834
				0.988222
				0.986989
				0.987451
				0.985926
				0.987074
				0.985257
				0.987155
				0.985069
				0.987722
				0.985419
				0.988772
				0.986322
				0.990261
				0.98775
				0.992113
				0.989635
				0.994233
				0.991876
				0.996515
				0.994359
				0.998856
				0.996962
				1.00116
				0.999575
				1.00335
				1.0021
				1.00536
				1.00445
				1.00714
				1.00657
				1.00866
				1.00842
				1.00989
				1.00996
				1.01083
				1.01117
				1.01145
				1.01204
				1.01177
				1.01256
				1.01177
				1.01274
				1.01145
				1.01256
				1.01083
				1.01204
				1.00989
				1.01117
				1.00866
				1.00996
				1.00714
				1.00842
				1.00536
				1.00657
				1.00335
				1.00445
				1.00116
				1.0021
				0.998856
				0.999575
				0.996515
				0.996962
				0.994233
				0.994359
				0.992113
				0.991876
				0.990261
				0.989635
				0.988772
				0.98775
				0.987722
				0.986322
				0.987155
				0.985419
				0.987074
				0.985069
				0.987451
				0.985257
				0.988222
				0.985926
				0.989303
				0.986989
				0.990598
				0.98834
				0.992005
				0.989861
				0.99342
				0.991435
				0.994735
				0.992937
				0.995816
				0.994235
				0.996476
				0.995164
				0.996413
				0.995497
				0.995179
				0.994892
				0.992417
				0.99292
				0.98868
				0.989527
				0.985873
				0.985942
				0.985295
				0.986011
				0.988407
				0.987677
				0.992352
				0.991397
				0.995085
				0.994776
				0.996281
				0.996622
				0.996457
				0.997174
				0.996056
				0.996985
				0.995333
				0.996409
				0.994436
				0.995635
				0.993468
				0.994772
				0.992515
				0.993897
				0.991651
				0.993077
				0.99095
				0.992377
				0.990479
				0.991857
				0.990296
				0.99157
				0.99044
				0.991559
				0.990928
				0.991848
				0.991751
				0.992441
				0.992877
				0.993318
				0.994248
				0.994441
				0.995798
				0.995753
				0.99745
				0.997191
				0.999132
				0.998688
				1.00078
				1.00018
				1.00234
				1.00162
				1.00376
				1.00296
				1.00501
				1.00416
				1.00608
				1.0052
				1.00695
				1.00607
				1.0076
				1.00675
				1.00804
				1.00724
				1.00826
				1.00754
				1.00826
				1.00764
				1.00804
				1.00754
				1.0076
				1.00724
				1.00695
				1.00675
				1.00608
				1.00607
				1.00501
				1.0052
				1.00376
				1.00416
				1.00234
				1.00296
				1.00078
				1.00162
				0.999132
				1.00018
				0.99745
				0.998688
				0.995798
				0.997191
				0.994248
				0.995753
				0.992877
				0.994441
				0.991751
				0.993318
				0.990928
				0.992441
				0.99044
				0.991848
				0.990296
				0.991559
				0.990479
				0.99157
				0.99095
				0.991857
				0.991651
				0.992377
				0.992515
				0.993077
				0.993468
				0.993897
				0.994436
				0.994772
				0.995333
				0.995635
				0.996056
				0.996409
				0.996457
				0.996985
				0.996281
				0.997174
				0.995085
				0.996622
				0.992352
				0.994776
				0.988407
				0.991397
				0.985295
				0.987677
				0.987508
				0.985865
				0.990494
				0.987671
				0.994137
				0.991566
				0.996495
				0.994883
				0.997427
				0.996576
				0.997544
				0.997098
				0.997288
				0.997026
				0.996861
				0.996664
				0.996358
				0.996156
				0.995836
				0.995586
				0.99534
				0.995011
				0.994908
				0.994481
				0.994578
				0.994041
				0.994384
				0.993733
				0.994352
				0.993592
				0.994502
				0.993647
				0.994839
				0.993912
				0.995356
				0.994386
				0.996034
				0.995054
				0.99684
				0.995887
				0.997737
				0.996844
				0.998684
				0.997881
				0.999642
				0.998951
				1.00057
				1.00001
				1.00145
				1.00103
				1.00225
				1.00197
				1.00296
				1.00281
				1.00355
				1.00353
				1.00404
				1.00414
				1.0044
				1.00461
				1.00465
				1.00495
				1.00477
				1.00515
				1.00477
				1.00522
				1.00465
				1.00515
				1.0044
				1.00495
				1.00404
				1.00461
				1.00355
				1.00414
				1.00296
				1.00353
				1.00225
				1.00281
				1.00145
				1.00197
				1.00057
				1.00103
				0.999642
				1.00001
				0.998684
				0.998951
				0.997737
				0.997881
				0.99684
				0.996844
				0.996034
				0.995887
				0.995357
				0.995054
				0.994839
				0.994386
				0.994502
				0.993912
				0.994352
				0.993647
				0.994384
				0.993592
				0.994578
				0.993733
				0.994908
				0.994041
				0.99534
				0.994481
				0.995836
				0.995011
				0.996358
				0.995586
				0.996861
				0.996156
				0.997288
				0.996664
				0.997544
				0.997026
				0.997427
				0.997098
				0.996495
				0.996576
				0.994137
				0.994883
				0.990494
				0.991566
				0.987508
				0.987671
				0.987775
				0.98846
				0.990876
				0.990076
				0.994467
				0.993471
				0.996615
				0.996205
				0.99741
				0.997475
				0.997542
				0.997809
				0.997396
				0.997748
				0.99713
				0.997534
				0.996811
				0.997257
				0.996481
				0.996962
				0.996172
				0.996677
				0.995911
				0.996426
				0.995724
				0.996232
				0.995633
				0.996114
				0.995657
				0.996092
				0.995806
				0.996177
				0.996085
				0.996375
				0.996484
				0.996685
				0.996991
				0.997097
				0.997582
				0.997594
				0.99823
				0.998153
				0.998907
				0.998751
				0.999586
				0.999362
				1.00024
				0.999963
				1.00086
				1.00054
				1.00142
				1.00106
				1.00191
				1.00153
				1.00232
				1.00194
				1.00265
				1.00228
				1.00291
				1.00254
				1.00307
				1.00273
				1.00316
				1.00284
				1.00316
				1.00288
				1.00307
				1.00284
				1.00291
				1.00273
				1.00265
				1.00254
				1.00232
				1.00228
				1.00191
				1.00194
				1.00142
				1.00153
				1.00086
				1.00106
				1.00024
				1.00054
				0.999586
				0.999963
				0.998907
				0.999362
				0.99823
				0.998751
				0.997582
				0.998153
				0.996991
				0.997594
				0.996484
				0.997097
				0.996085
				0.996685
				0.995806
				0.996375
				0.995657
				0.996177
				0.995633
				0.996092
				0.995724
				0.996114
				0.995911
				0.996232
				0.996172
				0.996426
				0.996481
				0.996677
				0.996811
				0.996962
				0.99713
				0.997257
				0.997396
				0.997534
				0.997542
				0.997748
				0.99741
				0.997809
				0.996615
				0.997475
				0.994467
				0.996205
				0.990876
				0.993471
				0.987775
				0.990076
				0.990412
				0.988936
				0.992974
				0.990596
				0.995828
				0.993963
				0.997421
				0.996489
				0.997943
				0.99756
				0.998006
				0.997832
				0.997918
				0.997814
				0.997778
				0.997689
				0.997623
				0.997524
				0.997471
				0.997347
				0.997336
				0.997178
				0.997233
				0.997035
				0.997172
				0.996933
				0.997167
				0.996885
				0.997224
				0.996903
				0.997349
				0.996995
				0.997542
				0.997165
				0.997798
				0.99741
				0.998108
				0.997722
				0.99846
				0.99809
				0.99884
				0.998497
				0.999231
				0.998927
				0.99962
				0.999363
				0.999993
				0.999789
				1.00034
				1.00019
				1.00065
				1.00056
				1.00093
				1.00089
				1.00116
				1.00117
				1.00135
				1.00141
				1.00149
				1.00159
				1.00158
				1.00172
				1.00163
				1.0018
				1.00163
				1.00182
				1.00158
				1.0018
				1.00149
				1.00172
				1.00135
				1.00159
				1.00116
				1.00141
				1.00093
				1.00117
				1.00065
				1.00089
				1.00034
				1.00056
				0.999993
				1.00019
				0.99962
				0.999789
				0.999231
				0.999363
				0.99884
				0.998927
				0.99846
				0.998497
				0.998108
				0.99809
				0.997798
				0.997722
				0.997542
				0.99741
				0.997349
				0.997165
				0.997224
				0.996995
				0.997167
				0.996903
				0.997172
				0.996885
				0.997233
				0.996933
				0.997336
				0.997035
				0.997471
				0.997178
				0.997623
				0.997347
				0.997778
				0.997524
				0.997918
				0.997689
				0.998006
				0.997814
				0.997943
				0.997832
				0.997421
				0.99756
				0.995828
				0.996489
				0.992974
				0.993962
				0.990412
				0.990596
				0.990996
				0.991562
				0.993544
				0.992862
				0.996235
				0.99544
				0.997608
				0.997292
				0.998016
				0.998016
				0.998075
				0.998175
				0.998033
				0.998163
				0.997958
				0.998104
				0.997873
				0.998033
				0.997792
				0.997962
				0.997723
				0.9979
				0.997677
				0.997854
				0.997661
				0.997833
				0.997682
				0.997843
				0.997746
				0.997888
				0.997856
				0.997974
				0.998012
				0.998101
				0.99821
				0.998266
				0.998443
				0.998466
				0.998703
				0.998692
				0.99898
				0.998937
				0.999262
				0.999191
				0.999541
				0.999445
				0.999806
				0.99969
				1.00005
				0.99992
				1.00027
				1.00013
				1.00047
				1.00032
				1.00063
				1.00047
				1.00076
				1.0006
				1.00086
				1.00071
				1.00092
				1.00078
				1.00095
				1.00082
				1.00095
				1.00084
				1.00092
				1.00082
				1.00086
				1.00078
				1.00076
				1.00071
				1.00063
				1.0006
				1.00047
				1.00047
				1.00027
				1.00032
				1.00005
				1.00013
				0.999806
				0.99992
				0.999541
				0.99969
				0.999262
				0.999445
				0.99898
				0.999191
				0.998703
				0.998937
				0.998443
				0.998692
				0.99821
				0.998466
				0.998012
				0.998266
				0.997856
				0.998101
				0.997746
				0.997974
				0.997682
				0.997888
				0.997661
				0.997843
				0.997677
				0.997833
				0.997723
				0.997854
				0.997792
				0.9979
				0.997873
				0.997962
				0.997958
				0.998033
				0.998033
				0.998104
				0.998075
				0.998163
				0.998016
				0.998175
				0.997608
				0.998016
				0.996235
				0.997292
				0.993544
				0.99544
				0.990996
				0.992862
				0.993307
				0.992151
				0.995177
				0.993442
				0.997106
				0.995916
				0.998049
				0.997567
				0.998311
				0.998147
				0.998351
				0.998269
				0.998341
				0.998275
				0.998321
				0.998254
				0.998301
				0.998225
				0.998286
				0.998198
				0.998278
				0.998177
				0.998283
				0.998167
				0.998304
				0.998173
				0.998345
				0.998199
				0.998409
				0.998248
				0.998496
				0.998323
				0.998608
				0.998424
				0.998742
				0.998555
				0.998893
				0.998709
				0.999056
				0.99888
				0.999224
				0.999063
				0.999392
				0.99925
				0.999555
				0.999435
				0.999708
				0.999613
				0.999848
				0.999778
				0.999973
				0.999928
				1.00008
				1.00006
				1.00017
				1.00017
				1.00024
				1.00026
				1.0003
				1.00034
				1.00033
				1.00039
				1.00035
				1.00042
				1.00035
				1.00043
				1.00033
				1.00042
				1.0003
				1.00039
				1.00024
				1.00034
				1.00017
				1.00026
				1.00008
				1.00017
				0.999973
				1.00006
				0.999848
				0.999928
				0.999708
				0.999778
				0.999555
				0.999613
				0.999392
				0.999435
				0.999224
				0.99925
				0.999056
				0.999063
				0.998893
				0.99888
				0.998742
				0.998709
				0.998608
				0.998555
				0.998496
				0.998424
				0.998409
				0.998323
				0.998345
				0.998248
				0.998304
				0.998199
				0.998283
				0.998173
				0.998278
				0.998167
				0.998286
				0.998177
				0.998301
				0.998198
				0.998321
				0.998225
				0.998341
				0.998254
				0.998351
				0.998275
				0.998311
				0.998269
				0.998049
				0.998147
				0.997106
				0.997567
				0.995177
				0.995916
				0.993307
				0.993442
				0.993846
				0.994321
				0.995668
				0.995219
				0.99745
				0.996923
				0.998241
				0.998041
				0.998437
				0.998427
				0.998476
				0.998515
				0.998489
				0.998539
				0.998498
				0.998555
				0.998507
				0.998571
				0.99852
				0.998588
				0.99854
				0.99861
				0.998567
				0.998638
				0.998605
				0.998675
				0.998654
				0.998722
				0.998715
				0.998783
				0.998787
				0.99886
				0.998855
				0.998942
				0.998958
				0.999025
				0.999075
				0.999127
				0.9992
				0.999236
				0.999328
				0.999349
				0.999453
				0.99946
				0.999572
				0.999566
				0.999683
				0.999664
				0.999783
				0.999754
				0.999871
				0.999834
				0.999946
				0.999902
				1.00001
				0.99996
				1.00006
				1.00001
				1.0001
				1.00004
				1.00012
				1.00007
				1.00013
				1.00008
				1.00013
				1.00009
				1.00012
				1.00008
				1.0001
				1.00007
				1.00006
				1.00004
				1.00001
				1.00001
				0.999946
				0.99996
				0.999871
				0.999902
				0.999783
				0.999834
				0.999683
				0.999754
				0.999572
				0.999664
				0.999453
				0.999566
				0.999328
				0.99946
				0.9992
				0.999349
				0.999075
				0.999236
				0.998958
				0.999127
				0.998855
				0.999025
				0.998787
				0.998942
				0.998715
				0.99886
				0.998654
				0.998783
				0.998605
				0.998722
				0.998567
				0.998675
				0.99854
				0.998638
				0.99852
				0.99861
				0.998507
				0.998588
				0.998498
				0.998571
				0.998489
				0.998555
				0.998476
				0.998539
				0.998437
				0.998515
				0.998241
				0.998427
				0.99745
				0.998041
				0.995668
				0.996923
				0.993846
				0.995219
				0.995945
				0.994895
				0.997086
				0.995774
				0.99819
				0.997392
				0.998663
				0.998378
				0.998763
				0.998671
				0.998768
				0.998719
				0.998762
				0.998727
				0.998756
				0.99873
				0.998754
				0.998734
				0.998759
				0.998743
				0.998773
				0.998758
				0.998798
				0.998784
				0.998836
				0.998822
				0.998889
				0.998876
				0.998957
				0.998946
				0.999048
				0.999038
				0.999399
				0.999101
				0.999506
				0.999268
				0.999595
				0.999391
				0.99967
				0.999495
				0.999733
				0.999585
				0.999786
				0.999664
				0.999832
				0.999733
				0.999871
				0.999794
				0.999904
				0.999847
				0.999931
				0.999892
				0.999953
				0.99993
				0.999971
				0.999961
				0.999984
				0.999985
				0.999994
				1
				1
				1.00002
				1
				1.00002
				1
				1.00003
				1
				1.00002
				0.999994
				1.00002
				0.999984
				1
				0.999971
				0.999985
				0.999953
				0.999961
				0.999931
				0.99993
				0.999904
				0.999892
				0.999871
				0.999847
				0.999832
				0.999794
				0.999786
				0.999733
				0.999733
				0.999664
				0.99967
				0.999585
				0.999595
				0.999495
				0.999506
				0.999391
				0.999399
				0.999268
				0.999048
				0.999101
				0.998957
				0.999038
				0.998889
				0.998946
				0.998836
				0.998876
				0.998798
				0.998822
				0.998773
				0.998784
				0.998759
				0.998758
				0.998754
				0.998743
				0.998756
				0.998734
				0.998762
				0.99873
				0.998768
				0.998727
				0.998763
				0.998719
				0.998663
				0.998671
				0.99819
				0.998378
				0.997086
				0.997392
				0.995945
				0.995774
			</DataArray>
			<DataArray type="Float64" Name="mach-number" Format="ascii">
				0.0137655
				0.018955
				0.0375585
				0.0317803
				0.0671037
				0.0574295
				0.102784
				0.0900541
				0.144489
				0.128927
				0.191604
				0.173405
				0.243299
				0.222657
				0.298591
				0.275697
				0.35635
				0.331392
				0.415288
				0.388488
				0.473926
				0.445564
				0.530559
				0.501042
				0.583172
				0.553131
				0.629432
				0.599785
				0.666665
				0.638765
				0.692236
				0.667716
				0.704082
				0.684673
				0.701545
				0.688519
				0.685543
				0.6795
				0.658257
				0.658999
				0.622177
				0.629085
				0.579588
				0.591814
				0.532305
				0.548994
				0.48167
				0.502048
				0.428663
				0.452058
				0.373969
				0.399858
				0.318086
				0.346065
				0.261381
				0.291198
				0.204136
				0.235731
				0.14662
				0.180231
				0.0892505
				0.12577
				0.0343029
				0.0758392
				0.0343029
				0.048841
				0.0892505
				0.0758392
				0.14662
				0.12577
				0.204136
				0.180231
				0.261381
				0.235731
				0.318086
				0.291198
				0.373969
				0.346065
				0.428663
				0.399858
				0.48167
				0.452058
				0.532305
				0.502048
				0.579588
				0.548994
				0.622177
				0.591814
				0.658256
				0.629085
				0.685543
				0.658999
				0.701545
				0.6795
				0.704082
				0.688519
				0.692236
				0.684673
				0.666665
				0.667716
				0.629432
				0.638765
				0.583172
				0.599785
				0.530559
				0.553131
				0.473926
				0.501042
				0.415288
				0.445564
				0.35635
				0.388487
				0.298591
				0.331392
				0.243299
				0.275697
				0.191603
				0.222657
				0.144489
				0.173404
				0.102784
				0.128926
				0.0671037
				0.0900541
				0.0375585
				0.0574294
				0.0137655
				0.0317803
				0.0509123
				0.0344819
				0.0699802
				0.0454901
				0.100367
				0.0711205
				0.13764
				0.104947
				0.179881
				0.144846
				0.225867
				0.189623
				0.274454
				0.238182
				0.324485
				0.28936
				0.374819
				0.341955
				0.424338
				0.394756
				0.471915
				0.446543
				0.51635
				0.496048
				0.556299
				0.541881
				0.590244
				0.582458
				0.616519
				0.615967
				0.633536
				0.640473
				0.640135
				0.654257
				0.635989
				0.656328
				0.621718
				0.646818
				0.598668
				0.626929
				0.568472
				0.598457
				0.532713
				0.563273
				0.492758
				0.523029
				0.449724
				0.479051
				0.404521
				0.432376
				0.357921
				0.383808
				0.310643
				0.334008
				0.263487
				0.283586
				0.217546
				0.233226
				0.17468
				0.183955
				0.138551
				0.137844
				0.116219
				0.100191
				0.116219
				0.0839119
				0.138551
				0.100191
				0.17468
				0.137844
				0.217547
				0.183955
				0.263487
				0.233227
				0.310643
				0.283586
				0.35792
				0.334008
				0.404521
				0.383808
				0.449724
				0.432376
				0.492758
				0.479051
				0.532713
				0.523028
				0.568472
				0.563273
				0.598668
				0.598457
				0.621718
				0.626929
				0.635989
				0.646818
				0.640135
				0.656327
				0.633536
				0.654257
				0.616519
				0.640473
				0.590244
				0.615967
				0.556299
				0.582458
				0.51635
				0.541881
				0.471915
				0.496048
				0.424338
				0.446543
				0.374819
				0.394756
				0.324485
				0.341954
				0.274454
				0.28936
				0.225867
				0.238181
				0.17988
				0.189623
				0.13764
				0.144846
				0.100367
				0.104947
				0.06998
				0.0711203
				0.0509122
				0.04549
				0.0700228
				0.0826753
				0.0896629
				0.0934139
				0.121588
				0.120714
				0.160153
				0.156871
				0.202461
				0.197238
				0.24688
				0.23957
				0.292173
				0.28256
				0.337297
				0.325233
				0.381398
				0.366842
				0.423763
				0.406808
				0.463721
				0.44462
				0.500522
				0.47971
				0.533239
				0.511353
				0.560719
				0.538618
				0.581633
				0.560378
				0.594666