<VTKFile type="UnstructuredGrid" version="0.1" byte_order="LittleEndian">
<UnstructuredGrid>
	<Piece NumberOfPoints="1088" NumberOfCells="2048">
		<CellData Scalars="density" Vectors="velocity">
			<DataArray type="Float64" Name="density" Format="ascii">
				0.961327
				0.963654
				0.960477
				0.963386
				0.958573
				0.962454
				0.955278
				0.960522
				0.950236
				0.957177
				0.943149
				0.95206
				0.93383
				0.944921
				0.922235
				0.935645
				0.908499
				0.924276
				0.892994
				0.911056
				0.876326
				0.896448
				0.859356
				0.881153
				0.843198
				0.866099
				0.829149
				0.852419
				0.818675
				0.841385
				0.813131
				0.834283
				0.813601
				0.832199
				0.820498
				0.835776
				0.833554
				0.845033
				0.851805
				0.859387
				0.874013
				0.877838
				0.898825
				0.899229
				0.924989
				0.9224
				0.9514
				0.946295
				0.977089
				0.969982
				1.00126
				0.992659
				1.0232
				1.01364
				1.04236
				1.03235
				1.05824
				1.0483
				1.07048
				1.06111
				1.0788
				1.07047
				1.083
				1.07617
				1.083
				1.07809
				1.0788
				1.07617
				1.07048
				1.07047
				1.05824
				1.06111
				1.04236
				1.0483
				1.02321
				1.03235
				1.00126
				1.01364
				0.977089
				0.992659
				0.9514
				0.969982
				0.924989
				0.946295
				0.898825
				0.9224
				0.874013
				0.899229
				0.851805
				0.877838
				0.833554
				0.859387
				0.820498
				0.845033
				0.813601
				0.835776
				0.813131
				0.832199
				0.818676
				0.834283
				0.829149
				0.841385
				0.843198
				0.852419
				0.859356
				0.866099
				0.876326
				0.881153
				0.892995
				0.896448
				0.9085
				0.911056
				0.922235
				0.924276
				0.93383
				0.935645
				0.943149
				0.944921
				0.950236
				0.95206
				0.955278
				0.957177
				0.958573
				0.960522
				0.960477
				0.962454
				0.961327
				0.963386
				0.967938
				0.967039
				0.967834
				0.966936
				0.967358
				0.966475
				0.966091
				0.965271
				0.963616
				0.96289
				0.959623
				0.95897
				0.953919
				0.953269
				0.946444
				0.945662
				0.937289
				0.936159
				0.926724
				0.924943
				0.915223
				0.912395
				0.903458
				0.899113
				0.892289
				0.885913
				0.882716
				0.873806
				0.875796
				0.863956
				0.872499
				0.85755
				0.873514
				0.855613
				0.879087
				0.858751
				0.888959
				0.866995
				0.902469
				0.879797
				0.918727
				0.896233
				0.93679
				0.915222
				0.955759
				0.935701
				0.97484
				0.956717
				0.993346
				0.977444
				1.0107
				0.997191
				1.02641
				1.01538
				1.04008
				1.03152
				1.05139
				1.04524
				1.06009
				1.05622
				1.06599
				1.06423
				1.06897
				1.0691
				1.06897
				1.07074
				1.06599
				1.0691
				1.06009
				1.06423
				1.05139
				1.05622
				1.04008
				1.04524
				1.02641
				1.03152
				1.0107
				1.01538
				0.993346
				0.99719
				0.97484
				0.977444
				0.955759
				0.956717
				0.93679
				0.935701
				0.918728
				0.915222
				0.902469
				0.896234
				0.888959
				0.879798
				0.879087
				0.866995
				0.873514
				0.858751
				0.872499
				0.855613
				0.875796
				0.85755
				0.882716
				0.863956
				0.892289
				0.873806
				0.903458
				0.885913
				0.915223
				0.899113
				0.926724
				0.912395
				0.937289
				0.924943
				0.946444
				0.936159
				0.953919
				0.945662
				0.959622
				0.953269
				0.963616
				0.95897
				0.966091
				0.96289
				0.967358
				0.965271
				0.967834
				0.966475
				0.967938
				0.966936
				0.970777
				0.972013
				0.970913
				0.972187
				0.970864
				0.972547
				0.970164
				0.97268
				0.968403
				0.972103
				0.965308
				0.970423
				0.960724
				0.967391
				0.954607
				0.96289
				0.947042
				0.95694
				0.938272
				0.949713
				0.928703
				0.94154
				0.91891
				0.93291
				0.909622
				0.924447
				0.901695
				0.916887
				0.896033
				0.911023
				0.893468
				0.907616
				0.894594
				0.907273
				0.899619
				0.910321
				0.908318
				0.916736
				0.920109
				0.926154
				0.934213
				0.937975
				0.949796
				0.951489
				0.966075
				0.965981
				0.982358
				0.980791
				0.998062
				0.995348
				1.01271
				1.00917
				1.0259
				1.02185
				1.03732
				1.03307
				1.04673
				1.04257
				1.05395
				1.05015
				1.05883
				1.05567
				1.06129
				1.05902
				1.06129
				1.06015
				1.05883
				1.05902
				1.05395
				1.05567
				1.04673
				1.05015
				1.03732
				1.04257
				1.0259
				1.03307
				1.01271
				1.02185
				0.998062
				1.00917
				0.982358
				0.995348
				0.966075
				0.980791
				0.949796
				0.965981
				0.934213
				0.951489
				0.920109
				0.937975
				0.908318
				0.926154
				0.899619
				0.916736
				0.894594
				0.910322
				0.893468
				0.907273
				0.896033
				0.907616
				0.901695
				0.911023
				0.909622
				0.916887
				0.91891
				0.924447
				0.928703
				0.93291
				0.938272
				0.94154
				0.947042
				0.949713
				0.954607
				0.95694
				0.960724
				0.96289
				0.965308
				0.967391
				0.968403
				0.970423
				0.970164
				0.972103
				0.970864
				0.97268
				0.970913
				0.972547
				0.970777
				0.972187
				0.975867
				0.974177
				0.976602
				0.974477
				0.977677
				0.975163
				0.978494
				0.975718
				0.978521
				0.975613
				0.977424
				0.974492
				0.975068
				0.972173
				0.971463
				0.968605
				0.966756
				0.963843
				0.961208
				0.958062
				0.955181
				0.951553
				0.949121
				0.944721
				0.943544
				0.938075
				0.939004
				0.932208
				0.936047
				0.927756
				0.93514
				0.925327
				0.936592
				0.925401
				0.940489
				0.928229
				0.946676
				0.933778
				0.954802
				0.941744
				0.964389
				0.95163
				0.974911
				0.962849
				0.985862
				0.974806
				0.996784
				0.986958
				1.00729
				0.998834
				1.01705
				1.01004
				1.02582
				1.02028
				1.03339
				1.02928
				1.03961
				1.03687
				1.04437
				1.04291
				1.04758
				1.04729
				1.04919
				1.04994
				1.04919
				1.05083
				1.04758
				1.04994
				1.04437
				1.04729
				1.03961
				1.04291
				1.03339
				1.03687
				1.02582
				1.02928
				1.01705
				1.02028
				1.00729
				1.01004
				0.996784
				0.998834
				0.985862
				0.986958
				0.974911
				0.974806
				0.964389
				0.962849
				0.954802
				0.95163
				0.946676
				0.941744
				0.940489
				0.933778
				0.936592
				0.928229
				0.93514
				0.925401
				0.936047
				0.925327
				0.939004
				0.927756
				0.943544
				0.932208
				0.949121
				0.938075
				0.955181
				0.944721
				0.961208
				0.951553
				0.966756
				0.958062
				0.971463
				0.963843
				0.975068
				0.968605
				0.977424
				0.972173
				0.978521
				0.974492
				0.978495
				0.975613
				0.977677
				0.975718
				0.976602
				0.975162
				0.975867
				0.974477
				0.97695
				0.97865
				0.977939
				0.979275
				0.979395
				0.980859
				0.980602
				0.982692
				0.98102
				0.984018
				0.980398
				0.984355
				0.978688
				0.983535
				0.975962
				0.981598
				0.972378
				0.978707
				0.968168
				0.975099
				0.963628
				0.971059
				0.95911
				0.966907
				0.955016
				0.962997
				0.951771
				0.959698
				0.949791
				0.957382
				0.949424
				0.956377
				0.95089
				0.95693
				0.954241
				0.959154
				0.959344
				0.963011
				0.96592
				0.96832
				0.973591
				0.97479
				0.981947
				0.982069
				0.990589
				0.989796
				0.999159
				0.997629
				1.00736
				1.00527
				1.01494
				1.01247
				1.02171
				1.01902
				1.02752
				1.02477
				1.03228
				1.02961
				1.03591
				1.03345
				1.03835
				1.03623
				1.03958
				1.03791
				1.03958
				1.03847
				1.03835
				1.03791
				1.03591
				1.03623
				1.03228
				1.03345
				1.02752
				1.02961
				1.02171
				1.02477
				1.01494
				1.01902
				1.00736
				1.01247
				0.999159
				1.00527
				0.990589
				0.997629
				0.981947
				0.989796
				0.973591
				0.982069
				0.96592
				0.97479
				0.959344
				0.96832
				0.954241
				0.963011
				0.95089
				0.959154
				0.949424
				0.95693
				0.949791
				0.956377
				0.951771
				0.957382
				0.955016
				0.959698
				0.95911
				0.962997
				0.963628
				0.966907
				0.968168
				0.971059
				0.972378
				0.975099
				0.975962
				0.978707
				0.978688
				0.981598
				0.980398
				0.983535
				0.98102
				0.984355
				0.980602
				0.984018
				0.979395
				0.982692
				0.977939
				0.980859
				0.97695
				0.979275
				0.980849
				0.978643
				0.98245
				0.979418
				0.984923
				0.981362
				0.987259
				0.983584
				0.98872
				0.985253
				0.989045
				0.985945
				0.988301
				0.985596
				0.986692
				0.984311
				0.984461
				0.982268
				0.981849
				0.979679
				0.979099
				0.976778
				0.976452
				0.973817
				0.974156
				0.971069
				0.972453
				0.968813
				0.971566
				0.967326
				0.971672
				0.966843
				0.972873
				0.967534
				0.975183
				0.969469
				0.978516
				0.972607
				0.982711
				0.976803
				0.987549
				0.981834
				0.992788
				0.987435
				0.99819
				0.993335
				1.00354
				0.999278
				1.00864
				1.00504
				1.01335
				1.01044
				1.01755
				1.01533
				1.02116
				1.0196
				1.0241
				1.02318
				1.02634
				1.02601
				1.02784
				1.02805
				1.0286
				1.02928
				1.0286
				1.0297
				1.02784
				1.02928
				1.02634
				1.02805
				1.0241
				1.02601
				1.02116
				1.02318
				1.01755
				1.0196
				1.01335
				1.01533
				1.00864
				1.01044
				1.00354
				1.00504
				0.99819
				0.999278
				0.992788
				0.993335
				0.987549
				0.987435
				0.982711
				0.981834
				0.978516
				0.976803
				0.975183
				0.972607
				0.972873
				0.969469
				0.971672
				0.967534
				0.971566
				0.966843
				0.972453
				0.967326
				0.974156
				0.968813
				0.976452
				0.971069
				0.979099
				0.973817
				0.981849
				0.976778
				0.984461
				0.979679
				0.986692
				0.982268
				0.988301
				0.984311
				0.989045
				0.985596
				0.98872
				0.985945
				0.987259
				0.985253
				0.984923
				0.983584
				0.98245
				0.981362
				0.980849
				0.979418
				0.98028
				0.982064
				0.982161
				0.983115
				0.985014
				0.985754
				0.987673
				0.988792
				0.98941
				0.991146
				0.990069
				0.992357
				0.989793
				0.99248
				0.988803
				0.991771
				0.987315
				0.990494
				0.985534
				0.988876
				0.983652
				0.987109
				0.981859
				0.985369
				0.980342
				0.983821
				0.97928
				0.982625
				0.978832
				0.981927
				0.979117
				0.981848
				0.980199
				0.982469
				0.982074
				0.983814
				0.984675
				0.985852
				0.987876
				0.988496
				0.991516
				0.991617
				0.995418
				0.995063
				0.99941
				0.998674
				1.00333
				1.0023
				1.00706
				1.00581
				1.01048
				1.00909
				1.01351
				1.01206
				1.0161
				1.01464
				1.01821
				1.01681
				1.0198
				1.01851
				1.02088
				1.01975
				1.02141
				1.02049
				1.02141
				1.02074
				1.02088
				1.02049
				1.0198
				1.01975
				1.01821
				1.01851
				1.0161
				1.01681
				1.01351
				1.01464
				1.01048
				1.01206
				1.00706
				1.00909
				1.00333
				1.00581
				0.99941
				1.0023
				0.995418
				0.998674
				0.991516
				0.995063
				0.987876
				0.991617
				0.984675
				0.988496
				0.982074
				0.985852
				0.980199
				0.983814
				0.979117
				0.982469
				0.978832
				0.981848
				0.97928
				0.981927
				0.980342
				0.982625
				0.981859
				0.983821
				0.983652
				0.985369
				0.985534
				0.987109
				0.987315
				0.988875
				0.988803
				0.990494
				0.989793
				0.991771
				0.990069
				0.99248
				0.98941
				0.992357
				0.987673
				0.991146
				0.985014
				0.988792
				0.982161
				0.985754
				0.98028
				0.983115
				0.983693
				0.981358
				0.985928
				0.982553
				0.989257
				0.98551
				0.992265
				0.988834
				0.994168
				0.991388
				0.994929
				0.992803
				0.994843
				0.993227
				0.994214
				0.992938
				0.99327
				0.992178
				0.992179
				0.991142
				0.991072
				0.989987
				0.990063
				0.988851
				0.989258
				0.987862
				0.988752
				0.987137
				0.988627
				0.986781
				0.988938
				0.986875
				0.989713
				0.987469
				0.990941
				0.988573
				0.99258
				0.990158
				0.994555
				0.992155
				0.996774
				0.994471
				0.999134
				0.996995
				1.00154
				0.999615
				1.00389
				1.00222
				1.00612
				1.00473
				1.00816
				1.00706
				1.00997
				1.00916
				1.01151
				1.01098
				1.01276
				1.0125
				1.01371
				1.01369
				1.01435
				1.01455
				1.01467
				1.01506
				1.01467
				1.01523
				1.01435
				1.01506
				1.01371
				1.01454
				1.01276
				1.01369
				1.01151
				1.0125
				1.00997
				1.01098
				1.00816
				1.00916
				1.00612
				1.00706
				1.00389
				1.00473
				1.00154
				1.00222
				0.999134
				0.999615
				0.996774
				0.996995
				0.994555
				0.994471
				0.99258
				0.992155
				0.990941
				0.990158
				0.989713
				0.988573
				0.988938
				0.987469
				0.988627
				0.986875
				0.988752
				0.986781
				0.989258
				0.987137
				0.990063
				0.987862
				0.991072
				0.988851
				0.992179
				0.989987
				0.99327
				0.991142
				0.994214
				0.992178
				0.994843
				0.992938
				0.994929
				0.993227
				0.994168
				0.992803
				0.992265
				0.991388
				0.989257
				0.988834
				0.985928
				0.98551
				0.983693
				0.982553
				0.98326
				0.984861
				0.985703
				0.986144
				0.989263
				0.989258
				0.9924
				0.992621
				0.994387
				0.995045
				0.995295
				0.99628
				0.995459
				0.99662
				0.995166
				0.996418
				0.994613
				0.995921
				0.993937
				0.995283
				0.993246
				0.994608
				0.992626
				0.993978
				0.992156
				0.993464
				0.991904
				0.993126
				0.991925
				0.993017
				0.992253
				0.993178
				0.992903
				0.993628
				0.993864
				0.994369
				0.995099
				0.995379
				0.996556
				0.996618
				0.998166
				0.99803
				0.999861
				0.999553
				1.00157
				1.00112
				1.00323
				1.00268
				1.00479
				1.00417
				1.00622
				1.00555
				1.00747
				1.00679
				1.00853
				1.00786
				1.00939
				1.00875
				1.01004
				1.00945
				1.01048
				1.00996
				1.01069
				1.01026
				1.01069
				1.01036
				1.01048
				1.01026
				1.01004
				1.00996
				1.00939
				1.00945
				1.00853
				1.00875
				1.00747
				1.00786
				1.00622
				1.00679
				1.00479
				1.00555
				1.00323
				1.00417
				1.00157
				1.00268
				0.999861
				1.00112
				0.998166
				0.999553
				0.996556
				0.99803
				0.995099
				0.996618
				0.993864
				0.995379
				0.992903
				0.994369
				0.992253
				0.993628
				0.991925
				0.993178
				0.991904
				0.993017
				0.992156
				0.993126
				0.992626
				0.993464
				0.993246
				0.993978
				0.993937
				0.994608
				0.994613
				0.995283
				0.995166
				0.995921
				0.995459
				0.996418
				0.995295
				0.99662
				0.994387
				0.99628
				0.9924
				0.995045
				0.989263
				0.992621
				0.985703
				0.989258
				0.98326
				0.986144
				0.986898
				0.984744
				0.989274
				0.986118
				0.992615
				0.989393
				0.995381
				0.992831
				0.996976
				0.995247
				0.997613
				0.996503
				0.997688
				0.996957
				0.997476
				0.996951
				0.997133
				0.996701
				0.996746
				0.996336
				0.996376
				0.995938
				0.996069
				0.995571
				0.995865
				0.995288
				0.995797
				0.99513
				0.995892
				0.995135
				0.996165
				0.995327
				0.99662
				0.995719
				0.997248
				0.996306
				0.998027
				0.997072
				0.998924
				0.997987
				0.999902
				0.999011
				1.00092
				1.0001
				1.00194
				1.00121
				1.00293
				1.0023
				1.00385
				1.00334
				1.00469
				1.00429
				1.00543
				1.00514
				1.00605
				1.00588
				1.00656
				1.00649
				1.00694
				1.00696
				1.00719
				1.0073
				1.00732
				1.00751
				1.00732
				1.00758
				1.00719
				1.00751
				1.00694
				1.0073
				1.00656
				1.00696
				1.00605
				1.00649
				1.00543
				1.00588
				1.00469
				1.00514
				1.00385
				1.00429
				1.00293
				1.00334
				1.00194
				1.0023
				1.00092
				1.00121
				0.999902
				1.0001
				0.998924
				0.999011
				0.998027
				0.997987
				0.997248
				0.997072
				0.99662
				0.996306
				0.996165
				0.995719
				0.995892
				0.995327
				0.995797
				0.995135
				0.995865
				0.99513
				0.996069
				0.995288
				0.996376
				0.995571
				0.996746
				0.995938
				0.997133
				0.996336
				0.997476
				0.996701
				0.997688
				0.996951
				0.997613
				0.996957
				0.996976
				0.996503
				0.995381
				0.995247
				0.992615
				0.992831
				0.989274
				0.989393
				0.986898
				0.986118
				0.987101
				0.988394
				0.989567
				0.989639
				0.992948
				0.992534
				0.995654
				0.995421
				0.997184
				0.997291
				0.997832
				0.998151
				0.998
				0.998406
				0.997935
				0.998373
				0.997763
				0.998215
				0.997555
				0.998015
				0.997357
				0.997817
				0.997204
				0.997653
				0.997122
				0.997548
				0.997137
				0.997523
				0.997263
				0.997595
				0.997511
				0.997774
				0.99788
				0.998066
				0.998364
				0.998467
				0.998944
				0.998964
				0.999599
				0.99954
				1.0003
				1.00017
				1.00102
				1.00084
				1.00174
				1.0015
				1.00243
				1.00216
				1.00306
				1.00277
				1.00364
				1.00334
				1.00414
				1.00384
				1.00457
				1.00428
				1.00491
				1.00464
				1.00517
				1.00492
				1.00534
				1.00512
				1.00543
				1.00524
				1.00543
				1.00528
				1.00534
				1.00524
				1.00517
				1.00512
				1.00491
				1.00492
				1.00457
				1.00464
				1.00414
				1.00428
				1.00364
				1.00384
				1.00306
				1.00334
				1.00243
				1.00277
				1.00174
				1.00216
				1.00102
				1.0015
				1.0003
				1.00084
				0.999599
				1.00017
				0.998944
				0.99954
				0.998364
				0.998964
				0.99788
				0.998467
				0.997511
				0.998066
				0.997263
				0.997774
				0.997137
				0.997595
				0.997122
				0.997523
				0.997204
				0.997548
				0.997357
				0.997653
				0.997555
				0.997817
				0.997763
				0.998015
				0.997935
				0.998215
				0.998
				0.998373
				0.997832
				0.998406
				0.997184
				0.998151
				0.995654
				0.997291
				0.992948
				0.995421
				0.989567
				0.992534
				0.987101
				0.989639
				0.990523
				0.988769
				0.992589
				0.990044
				0.995318
				0.992957
				0.997367
				0.995769
				0.998417
				0.997525
				0.998804
				0.99833
				0.998883
				0.998609
				0.998841
				0.998654
				0.998758
				0.9986
				0.998672
				0.998512
				0.998603
				0.998423
				0.998567
				0.998358
				0.998579
				0.998334
				0.998647
				0.998365
				0.998779
				0.998462
				0.99898
				0.998632
				0.999247
				0.998877
				0.999575
				0.999192
				0.999953
				0.99957
				1.00037
				0.999996
				1.00081
				1.00046
				1.00125
				1.00093
				1.00169
				1.0014
				1.0021
				1.00186
				1.00249
				1.00229
				1.00283
				1.00268
				1.00313
				1.00303
				1.00338
				1.00333
				1.00359
				1.00357
				1.00374
				1.00376
				1.00384
				1.0039
				1.00389
				1.00398
				1.00389
				1.004
				1.00384
				1.00398
				1.00374
				1.0039
				1.00359
				1.00376
				1.00338
				1.00357
				1.00313
				1.00333
				1.00283
				1.00303
				1.00249
				1.00268
				1.0021
				1.00229
				1.00169
				1.00186
				1.00125
				1.0014
				1.00081
				1.00093
				1.00037
				1.00046
				0.999953
				0.999996
				0.999575
				0.99957
				0.999247
				0.999192
				0.99898
				0.998877
				0.998779
				0.998632
				0.998647
				0.998462
				0.998579
				0.998365
				0.998567
				0.998334
				0.998603
				0.998358
				0.998672
				0.998423
				0.998758
				0.998512
				0.998841
				0.9986
				0.998883
				0.998654
				0.998804
				0.998609
				0.998417
				0.99833
				0.997367
				0.997525
				0.995318
				0.995769
				0.992589
				0.992957
				0.990523
				0.990044
				0.990966
				0.991902
				0.993035
				0.992919
				0.995697
				0.995188
				0.997622
				0.997279
				0.998579
				0.998496
				0.998947
				0.999002
				0.999062
				0.999161
				0.999081
				0.999193
				0.999068
				0.999186
				0.999051
				0.999171
				0.999045
				0.999166
				0.999062
				0.999179
				0.99911
				0.999218
				0.999197
				0.999291
				0.999327
				0.999401
				0.999501
				0.999552
				0.999719
				0.999742
				0.999975
				0.99997
				1.00026
				1.00023
				1.00057
				1.00051
				1.00089
				1.00081
				1.00121
				1.00111
				1.00152
				1.00141
				1.00181
				1.00169
				1.00208
				1.00195
				1.00232
				1.00219
				1.00253
				1.0024
				1.00271
				1.00258
				1.00284
				1.00273
				1.00295
				1.00284
				1.00302
				1.00292
				1.00305
				1.00297
				1.00305
				1.00299
				1.00302
				1.00297
				1.00295
				1.00292
				1.00284
				1.00284
				1.00271
				1.00273
				1.00253
				1.00258
				1.00232
				1.0024
				1.00208
				1.00219
				1.00181
				1.00195
				1.00152
				1.00169
				1.00121
				1.00141
				1.00089
				1.00111
				1.00057
				1.00081
				1.00026
				1.00051
				0.999975
				1.00023
				0.999719
				0.99997
				0.999501
				0.999742
				0.999327
				0.999552
				0.999197
				0.999401
				0.99911
				0.999291
				0.999062
				0.999218
				0.999045
				0.999179
				0.999051
				0.999166
				0.999068
				0.999171
				0.999081
				0.999186
				0.999062
				0.999193
				0.998947
				0.999161
				0.998579
				0.999002
				0.997622
				0.998496
				0.995697
				0.997279
				0.993035
				0.995188
				0.990966
				0.992919
				0.993553
				0.992301
				0.995115
				0.993312
				0.997066
				0.995533
				0.998413
				0.997515
				0.999046
				0.998631
				0.999284
				0.999096
				0.999373
				0.999269
				0.999419
				0.999341
				0.999456
				0.99938
				0.999495
				0.999412
				0.999544
				0.999449
				0.999607
				0.999497
				0.999688
				0.999561
				0.999791
				0.999648
				0.999915
				0.999759
				1.00006
				0.999896
				1.00023
				1.00006
				1.00042
				1.00024
				1.00062
				1.00045
				1.00083
				1.00066
				1.00104
				1.00089
				1.00125
				1.00111
				1.00145
				1.00133
				1.00163
				1.00153
				1.0018
				1.00172
				1.00195
				1.00189
				1.00208
				1.00203
				1.00218
				1.00216
				1.00227
				1.00226
				1.00233
				1.00234
				1.00237
				1.0024
				1.00239
				1.00243
				1.00239
				1.00244
				1.00237
				1.00243
				1.00233
				1.0024
				1.00227
				1.00234
				1.00218
				1.00226
				1.00208
				1.00216
				1.00195
				1.00203
				1.0018
				1.00189
				1.00163
				1.00172
				1.00145
				1.00153
				1.00125
				1.00133
				1.00104
				1.00111
				1.00083
				1.00089
				1.00062
				1.00066
				1.00042
				1.00045
				1.00023
				1.00024
				1.00006
				1.00006
				0.999915
				0.999896
				0.999791
				0.999759
				0.999688
				0.999648
				0.999607
				0.999561
				0.999544
				0.999497
				0.999495
				0.999449
				0.999456
				0.999412
				0.999419
				0.99938
				0.999373
				0.999341
				0.999284
				0.999269
				0.999046
				0.999096
				0.998413
				0.998631
				0.997066
				0.997515
				0.995115
				0.995533
				0.993553
				0.993312
				0.993819
				0.994376
				0.995349
				0.995126
				0.997219
				0.996744
				0.998478
				0.998153
				0.999072
				0.998931
				0.999321
				0.999269
				0.999447
				0.999424
				0.999536
				0.999524
				0.999611
				0.999607
				0.999684
				0.999687
				0.99976
				0.999768
				0.999843
				0.999854
				0.999936
				0.999946
				1.00004
				1.00005
				1.00016
				1.00016
				1.00029
				1.00029
				1.00044
				1.00042
				1.00059
				1.00057
				1.00075
				1.00072
				1.00091
				1.00088
				1.00107
				1.00103
				1.00123
				1.00118
				1.00137
				1.00132
				1.00151
				1.00145
				1.00163
				1.00157
				1.00173
				1.00168
				1.00182
				1.00177
				1.00189
				1.00184
				1.00195
				1.00191
				1.002
				1.00195
				1.00202
				1.00199
				1.00204
				1.00201
				1.00204
				1.00201
				1.00202
				1.00201
				1.002
				1.00199
				1.00195
				1.00195
				1.00189
				1.00191
				1.00182
				1.00184
				1.00173
				1.00177
				1.00163
				1.00168
				1.00151
				1.00157
				1.00137
				1.00145
				1.00123
				1.00132
				1.00107
				1.00118
				1.00091
				1.00103
				1.00075
				1.00088
				1.00059
				1.00072
				1.00044
				1.00057
				1.00029
				1.00042
				1.00016
				1.00029
				1.00004
				1.00016
				0.999936
				1.00005
				0.999843
				0.999946
				0.99976
				0.999854
				0.999684
				0.999768
				0.999611
				0.999687
				0.999536
				0.999607
				0.999447
				0.999524
				0.999321
				0.999424
				0.999072
				0.999269
				0.998478
				0.998931
				0.997219
				0.998153
				0.995349
				0.996744
				0.993819
				0.995126
				0.99466
				0.994036
				0.995869
				0.994794
				0.997374
				0.996431
				0.998454
				0.997883
				0.999049
				0.998744
				0.999374
				0.999187
				0.999584
				0.999441
				0.999743
				0.999618
				0.999875
				0.999758
				0.999993
				0.999878
				1.0001
				0.999987
				1.00021
				1.00009
				1.00032
				1.0002
				1.00044
				1.00031
				1.00056
				1.00043
				1.00068
				1.00055
				1.00081
				1.00068
				1.00094
				1.00082
				1.00107
				1.00095
				1.00119
				1.00108
				1.00131
				1.00121
				1.00141
				1.00133
				1.00151
				1.00144
				1.0016
				1.00154
				1.00167
				1.00163
				1.00173
				1.00171
				1.00178
				1.00177
				1.00182
				1.00182
				1.00186
				1.00186
				1.00188
				1.00189
				1.0019
				1.00191
				1.0019
				1.00193
				1.0019
				1.00193
				1.0019
				1.00193
				1.00188
				1.00191
				1.00186
				1.00189
				1.00182
				1.00186
				1.00178
				1.00182
				1.00173
				1.00177
				1.00167
				1.00171
				1.0016
				1.00163
				1.00151
				1.00154
				1.00141
				1.00144
				1.00131
				1.00133
				1.00119
				1.00121
				1.00107
				1.00108
				1.00094
				1.00095
				1.00081
				1.00082
				1.00068
				1.00068
				1.00056
				1.00055
				1.00044
				1.00043
				1.00032
				1.00031
				1.00021
				1.0002
				1.0001
				1.00009
				0.999993
				0.999987
				0.999875
				0.999878
				0.999743
				0.999758
				0.999584
				0.999618
				0.999374
				0.999441
				0.999049
				0.999187
				0.998454
				0.998744
				0.997374
				0.997883
				0.995869
				0.996431
				0.99466
				0.994794
			</DataArray>
			<DataArray type="Float64" Name="mach-number" Format="ascii">
				0.0141642
				0.0211151
				0.0383344
				0.0334792
				0.0671594
				0.0583169
				0.100972
				0.089292
				0.139874
				0.125602
				0.183443
				0.166754
				0.230998
				0.212082
				0.281704
				0.260769
				0.334587
				0.31186
				0.388508
				0.364273
				0.442122
				0.416738
				0.493853
				0.467807
				0.541838
				0.515815
				0.58396
				0.558873
				0.617885
				0.59496
				0.641411
				0.622029
				0.65286
				0.638425
				0.651651
				0.64319
				0.638396
				0.63642
				0.614734
				0.619106
				0.582669
				0.592864
				0.544162
				0.559403
				0.500865
				0.520326
				0.454054
				0.476957
				0.4047
				0.430351
				0.353499
				0.381344
				0.300971
				0.330579
				0.247504
				0.278603
				0.193401
				0.225927
				0.138944
				0.173161
				0.0845436
				0.121448
				0.03229
				0.0743901
				0.0322901
				0.0494981
				0.0845436
				0.0743902
				0.138944
				0.121448
				0.193401
				0.173161
				0.247504
				0.225926
				0.300971
				0.278603
				0.3535
				0.330579
				0.4047
				0.381344
				0.454054
				0.430351
				0.500865
				0.476957
				0.544162
				0.520326
				0.582669
				0.559404
				0.614734
				0.592864
				0.638396
				0.619106
				0.651651
				0.63642
				0.65286
				0.64319
				0.641411
				0.638425
				0.617885
				0.622029
				0.583959
				0.59496
				0.541838
				0.558873
				0.493853
				0.515815
				0.442122
				0.467807
				0.388507
				0.416738
				0.334587
				0.364272
				0.281704
				0.31186
				0.230998
				0.260769
				0.183443
				0.212082
				0.139873
				0.166754
				0.100972
				0.125602
				0.0671594
				0.089292
				0.0383344
				0.0583169
				0.0141641
				0.0334791
				0.0531419
				0.0350517
				0.0703221
				0.0455371
				0.098017
				0.0697358
				0.132149
				0.101264
				0.170915
				0.138159
				0.213239
				0.179424
				0.258181
				0.224174
				0.304773
				0.271468
				0.351996
				0.320294
				0.398772
				0.369567
				0.443954
				0.418124
				0.486301
				0.464703
				0.524452
				0.507909
				0.556933
				0.546192
				0.582225
				0.577858
				0.598949
				0.601195
				0.606134
				0.61475
				0.603487
				0.617696
				0.591468
				0.610091
				0.571136
				0.592846
				0.543845
				0.567408
				0.510977
				0.535371
				0.473781
				0.498214
				0.433324
				0.457181
				0.390504
				0.413277
				0.346098
				0.367303
				0.300845
				0.319927
				0.25556
				0.271763
				0.211347
				0.223494
				0.170054
				0.176115
				0.135268
				0.131612
				0.113807
				0.0950746
				0.113807
				0.079169
				0.135268
				0.0950746
				0.170054
				0.131612
				0.211347
				0.176115
				0.25556
				0.223494
				0.300845
				0.271763
				0.346098
				0.319926
				0.390504
				0.367303
				0.433324
				0.413277
				0.473781
				0.457181
				0.510977
				0.498214
				0.543845
				0.535371
				0.571136
				0.567408
				0.591468
				0.592846
				0.603487
				0.610091
				0.606134
				0.617696
				0.598949
				0.61475
				0.582225
				0.601195
				0.556933
				0.577858
				0.524451
				0.546192
				0.486301
				0.507909
				0.443954
				0.464703
				0.398772
				0.418124
				0.351996
				0.369567
				0.304773
				0.320294
				0.25818
				0.271468
				0.213239
				0.224174
				0.170915
				0.179424
				0.132148
				0.138159
				0.0980168
				0.101264
				0.070322
				0.0697356
				0.0531418
				0.045537
				0.0703886
				0.0847313
				0.0874478
				0.093681
				0.115768
				0.117066
				0.150675
				0.149082
				0.189588
				0.185802
				0.230983
				0.225088
				0.27374
				0.26568
				0.316872
				0.306633
				0.359467
				0.347125
				0.400668
				0.386403
				0.439639
				0.423752
				0.475503
				0.458434
				0.507285
				0.489631
				0.533884
				0.516413
				0.554124
				0.537754
				0.566902
				0.552636
				0.571431
				0.560218
				0.567466
				0.560051
				0.555394
				0.552207
				0.536112
				0.537272
				0.510796
				0.516184
				0.480671
				0.490044
				0.446872
				0.459951
				0.410396
				0.426922