<VTKFile type="UnstructuredGrid" version="0.1" byte_order="LittleEndian">
<UnstructuredGrid>
	<Piece NumberOfPoints="1088" NumberOfCells="2048">
		<PointData Scalars="density" Vectors="velocity">
			<DataArray type="Float64" Name="density" Format="ascii">
				0.265547
				0.265083
				0.263824
				0.261669
				0.258378
				0.253926
				0.248413
				0.24201
				0.234925
				0.227383
				0.219626
				0.21192
				0.204574
				0.197966
				0.192574
				0.188974
				0.187713
				0.189025
				0.192666
				0.198098
				0.204742
				0.212118
				0.219842
				0.227609
				0.235168
				0.242309
				0.248853
				0.254648
				0.259566
				0.2635
				0.266369
				0.268114
				0.2687
				0.268114
				0.266369
				0.2635
				0.259566
				0.254648
				0.248853
				0.242309
				0.235168
				0.227609
				0.219842
				0.212118
				0.204742
				0.198098
				0.192666
				0.189025
				0.187713
				0.188974
				0.192574
				0.197967
				0.204574
				0.21192
				0.219626
				0.227383
				0.234925
				0.24201
				0.248413
				0.253926
				0.258378
				0.261669
				0.263824
				0.265083
				0.265154
				0.264385
				0.26297
				0.260667
				0.257372
				0.253135
				0.248072
				0.242336
				0.236101
				0.229558
				0.222918
				0.216431
				0.210399
				0.205199
				0.201295
				0.199181
				0.199203
				0.201351
				0.205271
				0.210474
				0.216503
				0.222981
				0.229613
				0.236159
				0.242422
				0.248239
				0.253473
				0.258008
				0.26175
				0.264622
				0.266568
				0.26755
				0.26755
				0.266568
				0.264622
				0.26175
				0.258008
				0.253473
				0.248239
				0.242422
				0.236159
				0.229613
				0.222981
				0.216503
				0.210474
				0.205271
				0.201351
				0.199204
				0.199181
				0.201295
				0.205199
				0.210399
				0.216431
				0.222918
				0.229558
				0.236101
				0.242336
				0.248072
				0.253135
				0.257372
				0.260667
				0.26297
				0.264385
				0.265154
				0.264156
				0.263813
				0.262933
				0.261433
				0.259182
				0.256222
				0.252624
				0.248479
				0.24389
				0.23898
				0.233895
				0.228816
				0.223963
				0.219613
				0.216098
				0.21378
				0.212964
				0.213774
				0.216082
				0.219584
				0.223922
				0.22877
				0.233857
				0.238964
				0.243916
				0.248571
				0.252814
				0.256551
				0.259707
				0.262221
				0.264048
				0.265157
				0.265529
				0.265157
				0.264048
				0.262221
				0.259707
				0.256551
				0.252814
				0.248571
				0.243916
				0.238964
				0.233857
				0.22877
				0.223922
				0.219584
				0.216082
				0.213774
				0.212964
				0.21378
				0.216098
				0.219613
				0.223963
				0.228816
				0.233895
				0.23898
				0.24389
				0.248479
				0.252624
				0.256222
				0.259182
				0.261433
				0.262933
				0.263813
				0.261977
				0.261497
				0.260568
				0.259076
				0.257071
				0.254616
				0.251758
				0.248549
				0.245059
				0.241381
				0.237636
				0.23398
				0.230607
				0.227743
				0.225636
				0.224511
				0.224507
				0.225626
				0.227728
				0.230594
				0.23398
				0.237661
				0.241446
				0.245181
				0.248742
				0.25203
				0.254968
				0.257497
				0.259569
				0.261152
				0.26222
				0.262757
				0.262757
				0.26222
				0.261152
				0.259569
				0.257497
				0.254968
				0.25203
				0.248742
				0.245181
				0.241446
				0.237661
				0.23398
				0.230594
				0.227728
				0.225626
				0.224507
				0.224511
				0.225636
				0.227743
				0.230607
				0.23398
				0.237636
				0.241381
				0.24506
				0.248549
				0.251758
				0.254616
				0.257071
				0.259076
				0.260568
				0.261497
				0.261977
				0.259428
				0.259267
				0.258784
				0.257886
				0.256601
				0.255004
				0.25312
				0.250973
				0.248602
				0.246064
				0.243439
				0.24083
				0.238365
				0.236193
				0.234478
				0.233372
				0.232989
				0.233372
				0.23448
				0.236202
				0.238388
				0.240875
				0.243516
				0.246182
				0.24877
				0.251196
				0.253396
				0.255322
				0.256938
				0.258218
				0.259144
				0.259704
				0.259891
				0.259704
				0.259144
				0.258218
				0.256938
				0.255322
				0.253396
				0.251196
				0.24877
				0.246182
				0.243516
				0.240875
				0.238388
				0.236203
				0.23448
				0.233372
				0.232989
				0.233372
				0.234478
				0.236193
				0.238365
				0.24083
				0.243439
				0.246064
				0.248602
				0.250973
				0.25312
				0.255004
				0.256601
				0.257886
				0.258784
				0.259267
				0.256807
				0.256634
				0.256178
				0.25542
				0.254441
				0.253258
				0.251885
				0.250342
				0.248667
				0.246908
				0.245131
				0.243418
				0.241862
				0.240569
				0.239637
				0.239149
				0.239152
				0.239648
				0.24059
				0.241896
				0.243468
				0.245203
				0.247004
				0.24879
				0.250495
				0.252067
				0.253467
				0.254665
				0.255642
				0.256385
				0.256885
				0.257135
				0.257135
				0.256885
				0.256385
				0.255642
				0.254665
				0.253467
				0.252067
				0.250495
				0.24879
				0.247004
				0.245203
				0.243468
				0.241896
				0.24059
				0.239648
				0.239152
				0.239149
				0.239637
				0.240569
				0.241863
				0.243418
				0.245131
				0.246908
				0.248667
				0.250342
				0.251885
				0.253258
				0.254441
				0.25542
				0.256178
				0.256634
				0.256807
				0.254616
				0.254597
				0.254436
				0.254041
				0.253478
				0.252777
				0.251939
				0.250979
				0.24992
				0.24879
				0.247631
				0.246491
				0.245429
				0.244508
				0.243794
				0.243341
				0.243189
				0.243351
				0.243815
				0.244541
				0.245474
				0.24655
				0.247704
				0.248878
				0.250021
				0.251094
				0.252066
				0.252915
				0.253624
				0.254184
				0.254588
				0.254831
				0.254913
				0.254831
				0.254588
				0.254184
				0.253624
				0.252915
				0.252066
				0.251094
				0.250021
				0.248878
				0.247704
				0.24655
				0.245474
				0.244541
				0.243815
				0.243351
				0.243189
				0.243341
				0.243794
				0.244508
				0.245429
				0.246491
				0.247631
				0.24879
				0.24992
				0.250979
				0.251939
				0.252777
				0.253478
				0.254041
				0.254436
				0.254597
				0.252952
				0.252948
				0.252792
				0.252493
				0.2521
				0.251614
				0.251042
				0.250399
				0.249702
				0.248974
				0.248246
				0.24755
				0.246926
				0.246414
				0.24605
				0.245863
				0.245868
				0.246065
				0.246439
				0.246962
				0.247595
				0.2483
				0.249037
				0.249771
				0.250474
				0.251122
				0.251698
				0.252191
				0.252591
				0.252895
				0.253099
				0.253201
				0.253201
				0.253099
				0.252895
				0.252591
				0.252191
				0.251698
				0.251122
				0.250474
				0.249771
				0.249037
				0.2483
				0.247595
				0.246962
				0.246439
				0.246065
				0.245868
				0.245863
				0.24605
				0.246414
				0.246926
				0.24755
				0.248246
				0.248974
				0.249702
				0.250399
				0.251042
				0.251614
				0.2521
				0.252493
				0.252792
				0.252948
				0.252952
				0.251783
				0.25182
				0.251809
				0.251673
				0.251464
				0.251195
				0.250868
				0.250492
				0.250078
				0.249638
				0.249189
				0.24875
				0.248345
				0.247997
				0.247729
				0.247562
				0.247507
				0.24757
				0.247746
				0.248022
				0.248377
				0.248789
				0.249234
				0.249687
				0.250131
				0.250547
				0.250924
				0.251253
				0.251528
				0.251744
				0.2519
				0.251994
				0.252025
				0.251994
				0.2519
				0.251744
				0.251528
				0.251253
				0.250924
				0.250547
				0.250131
				0.249687
				0.249234
				0.248789
				0.248377
				0.248022
				0.247746
				0.24757
				0.247507
				0.247562
				0.247729
				0.247997
				0.248345
				0.24875
				0.249189
				0.249638
				0.250078
				0.250492
				0.250868
				0.251195
				0.251464
				0.251673
				0.251809
				0.25182
				0.251042
				0.251098
				0.251068
				0.250964
				0.250821
				0.250641
				0.250428
				0.25019
				0.249932
				0.249665
				0.249397
				0.249143
				0.248917
				0.248733
				0.248603
				0.248537
				0.24854
				0.248613
				0.24875
				0.24894
				0.249172
				0.24943
				0.249701
				0.249972
				0.250231
				0.25047
				0.250683
				0.250865
				0.251012
				0.251124
				0.251199
				0.251236
				0.251236
				0.251199
				0.251124
				0.251012
				0.250865
				0.250683
				0.25047
				0.250231
				0.249972
				0.249701
				0.24943
				0.249172
				0.24894
				0.24875
				0.248613
				0.24854
				0.248537
				0.248603
				0.248733
				0.248917
				0.249144
				0.249397
				0.249665
				0.249932
				0.25019
				0.250428
				0.250641
				0.250821
				0.250964
				0.251068
				0.251098
				0.251042
				0.250561
				0.250611
				0.25065
				0.25061
				0.250535
				0.250439
				0.250322
				0.250189
				0.250043
				0.249887
				0.249729
				0.249576
				0.249434
				0.249313
				0.24922
				0.249163
				0.249145
				0.249169
				0.249231
				0.249329
				0.249454
				0.2496
				0.249757
				0.249917
				0.250075
				0.250222
				0.250356
				0.250473
				0.25057
				0.250647
				0.250702
				0.250735
				0.250746
				0.250735
				0.250702
				0.250647
				0.25057
				0.250473
				0.250356
				0.250222
				0.250075
				0.249917
				0.249757
				0.2496
				0.249454
				0.249329
				0.249231
				0.249169
				0.249145
				0.249163
				0.24922
				0.249313
				0.249434
				0.249576
				0.249729
				0.249887
				0.250043
				0.250189
				0.250322
				0.250439
				0.250535
				0.25061
				0.25065
				0.250611
				0.250302
				0.250367
				0.250374
				0.250336
				0.250285
				0.250223
				0.25015
				0.250069
				0.249982
				0.249891
				0.2498
				0.249714
				0.249638
				0.249576
				0.249533
				0.249512
				0.249514
				0.24954
				0.249587
				0.249653
				0.249732
				0.249821
				0.249915
				0.250008
				0.250098
				0.25018
				0.250253
				0.250316
				0.250367
				0.250405
				0.250431
				0.250444
				0.250444
				0.250431
				0.250405
				0.250367
				0.250316
				0.250253
				0.25018
				0.250098
				0.250008
				0.249915
				0.249821
				0.249732
				0.249653
				0.249587
				0.24954
				0.249514
				0.249512
				0.249533
				0.249576
				0.249638
				0.249714
				0.2498
				0.249891
				0.249982
				0.250069
				0.25015
				0.250223
				0.250285
				0.250336
				0.250374
				0.250367
				0.250302
				0.250133
				0.250179
				0.25022
				0.250206
				0.250178
				0.250146
				0.250107
				0.250063
				0.250014
				0.249963
				0.249911
				0.24986
				0.249814
				0.249775
				0.249745
				0.249727
				0.249722
				0.249731
				0.249753
				0.249786
				0.249829
				0.249878
				0.249931
				0.249986
				0.250039
				0.250089
				0.250134
				0.250173
				0.250206
				0.250232
				0.250251
				0.250262
				0.250266
				0.250262
				0.250251
				0.250232
				0.250206
				0.250173
				0.250134
				0.250089
				0.250039
				0.249986
				0.249931
				0.249878
				0.249829
				0.249786
				0.249753
				0.249731
				0.249722
				0.249727
				0.249745
				0.249775
				0.249814
				0.24986
				0.249911
				0.249963
				0.250014
				0.250063
				0.250107
				0.250146
				0.250178
				0.250206
				0.25022
				0.250179
				0.250061
				0.250114
				0.250123
				0.250107
				0.250091
				0.250071
				0.250047
				0.250021
				0.249993
				0.249963
				0.249934
				0.249906
				0.249882
				0.249862
				0.249849
				0.249843
				0.249845
				0.249855
				0.249872
				0.249895
				0.249923
				0.249953
				0.249985
				0.250017
				0.250047
				0.250075
				0.2501
				0.250121
				0.250139
				0.250152
				0.25016
				0.250165
				0.250165
				0.25016
				0.250152
				0.250139
				0.250121
				0.2501
				0.250075
				0.250047
				0.250017
				0.249985
				0.249953
				0.249923
				0.249895
				0.249872
				0.249855
				0.249845
				0.249843
				0.249849
				0.249862
				0.249882
				0.249906
				0.249934
				0.249963
				0.249993
				0.250021
				0.250047
				0.250071
				0.250091
				0.250107
				0.250123
				0.250114
				0.250061
				0.250008
				0.250042
				0.250072
				0.250065
				0.250056
				0.250046
				0.250033
				0.250019
				0.250002
				0.249985
				0.249968
				0.249952
				0.249937
				0.249925
				0.249917
				0.249912
				0.249912
				0.249916
				0.249925
				0.249937
				0.249952
				0.24997
				0.249988
				0.250007
				0.250025
				0.250042
				0.250058
				0.250071
				0.250082
				0.250091
				0.250097
				0.250101
				0.250102
				0.250101
				0.250097
				0.250091
				0.250082
				0.250071
				0.250058
				0.250042
				0.250025
				0.250007
				0.249988
				0.24997
				0.249952
				0.249937
				0.249925
				0.249916
				0.249912
				0.249912
				0.249917
				0.249925
				0.249937
				0.249952
				0.249968
				0.249985
				0.250002
				0.250019
				0.250033
				0.250046
				0.250056
				0.250065
				0.250072
				0.250042
				0.249998
				0.250035
				0.250042
				0.250034
				0.250028
				0.25002
				0.25001
				0.249999
				0.249988
				0.249976
				0.249965
				0.249955
				0.249947
				0.249942
				0.249939
				0.24994
				0.249944
				0.24995
				0.24996
				0.249971
				0.249984
				0.249997
				0.250011
				0.250025
				0.250037
				0.250049
				0.250059
				0.250067
				0.250074
				0.250079
				0.250082
				0.250084
				0.250084
				0.250082
				0.250079
				0.250074
				0.250067
				0.250059
				0.250049
				0.250037
				0.250025
				0.250011
				0.249997
				0.249984
				0.249971
				0.24996
				0.24995
				0.249944
				0.24994
				0.249939
				0.249942
				0.249947
				0.249955
				0.249965
				0.249976
				0.249988
				0.249999
				0.25001
				0.25002
				0.250028
				0.250034
				0.250042
				0.250035
				0.249998
				0.249991
				0.250007
				0.25002
				0.250018
				0.250015
				0.25001
				0.250005
				0.249999
				0.249993
				0.249986
				0.24998
				0.249975
				0.249971
				0.249968
				0.249966
				0.249967
				0.249969
				0.249973
				0.249978
				0.249984
				0.249992
				0.249999
				0.250007
				0.250015
				0.250022
				0.250029
				0.250034
				0.250039
				0.250043
				0.250046
				0.250049
				0.25005
				0.25005
				0.25005
				0.250049
				0.250046
				0.250043
				0.250039
				0.250034
				0.250029
				0.250022
				0.250015
				0.250007
				0.249999
				0.249992
				0.249984
				0.249978
				0.249973
				0.249969
				0.249967
				0.249966
				0.249968
				0.249971
				0.249975
				0.24998
				0.249986
				0.249993
				0.249999
				0.250005
				0.25001
				0.250015
				0.250018
				0.25002
				0.250007
			</DataArray>
			<DataArray type="Float64" Name="mach-number" Format="ascii">
				0.00761692
				0.047248
				0.100953
				0.16241
				0.228507
				0.296879
				0.365899
				0.434491
				0.501923
				0.567601
				0.630872
				0.690871
				0.746291
				0.79518
				0.83468
				0.860993
				0.870377
				0.861274
				0.835544
				0.797025
				0.749568
				0.696064
				0.638538
				0.578336
				0.516363
				0.45323
				0.389338
				0.324968
				0.260311
				0.195504
				0.13068
				0.0661501
				0.011831
				0.06615
				0.13068
				0.195504
				0.26031
				0.324968
				0.389338
				0.453229
				0.516363
				0.578336
				0.638538
				0.696064
				0.749567
				0.797025
				0.835544
				0.861273
				0.870377
				0.860993
				0.83468
				0.79518
				0.746291
				0.69087
				0.630872
				0.5676
				0.501923
				0.434491
				0.365898
				0.296878
				0.228507
				0.16241
				0.100953
				0.0472479
				0.0633063
				0.10112
				0.152863
				0.209781
				0.269064
				0.329135
				0.389024
				0.448093
				0.505835
				0.561712
				0.615033
				0.66482
				0.709639
				0.747462
				0.775534
				0.79077
				0.790929
				0.776084
				0.748499
				0.711267
				0.667135
				0.618179
				0.565882
				0.51129
				0.455161
				0.398063
				0.340475
				0.282877
				0.225909
				0.170772
				0.120515
				0.0847817
				0.0847817
				0.120515
				0.170772
				0.225909
				0.282877
				0.340475
				0.398063
				0.45516
				0.51129
				0.565882
				0.618179
				0.667135
				0.711267
				0.748498
				0.776084
				0.790929
				0.790769
				0.775533
				0.747461
				0.709639
				0.664819
				0.615033
				0.561712
				0.505834
				0.448093
				0.389024
				0.329135
				0.269064
				0.209781
				0.152863
				0.10112
				0.0633063
				0.115466
				0.133894
				0.172709
				0.215308
				0.259009
				0.303623
				0.348915
				0.394604
				0.440275
				0.485369
				0.529167
				0.570752
				0.608934
				0.642161
				0.66848
				0.685675
				0.691814
				0.686088
				0.669263
				0.643224
				0.610145
				0.571947
				0.530152
				0.485922
				0.440157
				0.393605
				0.346957
				0.300973
				0.256657
				0.215565
				0.180326
				0.155286
				0.14597
				0.155286
				0.180326
				0.215564
				0.256657
				0.300973
				0.346957
				0.393605
				0.440157
				0.485921
				0.530152
				0.571947
				0.610144
				0.643224
				0.669263
				0.686087
				0.691813
				0.685675
				0.66848
				0.64216
				0.608933
				0.570752
				0.529166
				0.485368
				0.440274
				0.394603
				0.348915
				0.303623
				0.259009
				0.215308
				0.172709
				0.133894
				0.180233
				0.206703
				0.237121
				0.265758
				0.295153
				0.326283
				0.359209
				0.393491
				0.428427
				0.463179
				0.496809
				0.528251
				0.556264
				0.579414
				0.596147
				0.605037
				0.605191
				0.596594
				0.580109
				0.557124
				0.529154
				0.497584
				0.463591
				0.42816
				0.392145
				0.356345
				0.321588
				0.288833
				0.259278
				0.234458
				0.21623
				0.206483
				0.206483
				0.21623
				0.234458
				0.259278
				0.288833
				0.321588
				0.356345
				0.392145
				0.42816
				0.46359
				0.497584
				0.529154
				0.557124
				0.580109
				0.596594
				0.605191
				0.605037
				0.596147
				0.579413
				0.556264
				0.528251
				0.496809
				0.463179
				0.428426
				0.393491
				0.359209
				0.326282
				0.295153
				0.265758
				0.237121
				0.206702
				0.180233
				0.230843
				0.244089
				0.26658
				0.284379
				0.301648
				0.321244
				0.343389
				0.367591
				0.393095
				0.419095
				0.444762
				0.469218
				0.491503
				0.510565
				0.525302
				0.534684
				0.537956
				0.534829
				0.525572
				0.510921
				0.491884
				0.469542
				0.44493
				0.418981
				0.392535
				0.366359
				0.341193
				0.317784
				0.296914
				0.27941
				0.266107
				0.257761
				0.254912
				0.257761
				0.266107
				0.27941
				0.296914
				0.317784
				0.341193
				0.366359
				0.392535
				0.418981
				0.44493
				0.469542
				0.491884
				0.510921
				0.525572
				0.534829
				0.537956
				0.534684
				0.525301
				0.510565
				0.491503
				0.469218
				0.444761
				0.419094
				0.393095
				0.367591
				0.343389
				0.321243
				0.301648
				0.284378
				0.26658
				0.244089
				0.279116
				0.295247
				0.307586
				0.316691
				0.328015
				0.341959
				0.357938
				0.375296
				0.393416
				0.411692
				0.429486
				0.446098
				0.46077
				0.472714
				0.481185
				0.485587
				0.48558
				0.481157
				0.472649
				0.460643
				0.445878
				0.429143
				0.411206
				0.39278
				0.374514
				0.356998
				0.340771
				0.326329
				0.314127
				0.304568
				0.297989
				0.294636
				0.294636
				0.297989
				0.304568
				0.314127
				0.326329
				0.340771
				0.356998
				0.374514
				0.39278
				0.411206
				0.429143
				0.445878
				0.460643
				0.472649
				0.481157
				0.485579
				0.485587
				0.481185
				0.472714
				0.46077
				0.446098
				0.429485
				0.411692
				0.393416
				0.375296
				0.357937
				0.341959
				0.328014
				0.316691
				0.307586
				0.295247
				0.279116
				0.310321
				0.318464
				0.328871
				0.33374
				0.339645
				0.347971
				0.357905
				0.368953
				0.380737
				0.392893
				0.405011
				0.416624
				0.427205
				0.436206
				0.443093
				0.447414
				0.44886
				0.447319
				0.442899
				0.435905
				0.426789
				0.416087
				0.40436
				0.392146
				0.379943
				0.368189
				0.357266
				0.347494
				0.339141
				0.332423
				0.327506
				0.324509
				0.323501
				0.324509
				0.327506
				0.332423
				0.339141
				0.347494
				0.357266
				0.368189
				0.379943
				0.392146
				0.40436
				0.416087
				0.426789
				0.435905
				0.442899
				0.447319
				0.44886
				0.447414
				0.443093
				0.436206
				0.427205
				0.416624
				0.405011
				0.392892
				0.380737
				0.368953
				0.357905
				0.347971
				0.339645
				0.33374
				0.328871
				0.318464
				0.336491
				0.344784
				0.348703
				0.351385
				0.356132
				0.362034
				0.368678
				0.375898
				0.383514
				0.391296
				0.398949
				0.406137
				0.412493
				0.417651
				0.421283
				0.42314
				0.423085
				0.421118
				0.417375
				0.412107
				0.405646
				0.398362
				0.390628
				0.382795
				0.375176
				0.368033
				0.361582
				0.355991
				0.351387
				0.347862
				0.34548
				0.34428
				0.34428
				0.34548
				0.347862
				0.351387
				0.355991
				0.361582
				0.368033
				0.375176
				0.382795
				0.390628
				0.398362
				0.405646
				0.412107
				0.417375
				0.421118
				0.423085
				0.42314
				0.421283
				0.417651
				0.412493
				0.406137
				0.398949
				0.391295
				0.383514
				0.375898
				0.368678
				0.362034
				0.356132
				0.351385
				0.348703
				0.344784
				0.336491
				0.351169
				0.355373
				0.359734
				0.361095
				0.363597
				0.367011
				0.370827
				0.37504
				0.379585
				0.38434
				0.389136
				0.39377
				0.39801
				0.40162
				0.404375
				0.406091
				0.406645
				0.405993
				0.404181
				0.401332
				0.397636
				0.393317
				0.388618
				0.383772
				0.378989
				0.374449
				0.370296
				0.366642
				0.363568
				0.361132
				0.359369
				0.358303
				0.357947
				0.358303
				0.359369
				0.361132
				0.363568
				0.366642
				0.370296
				0.374449
				0.378989
				0.383772
				0.388618
				0.393317
				0.397636
				0.401332
				0.40418
				0.405993
				0.406645
				0.406091
				0.404375
				0.40162
				0.39801
				0.393769
				0.389136
				0.38434
				0.379585
				0.37504
				0.370827
				0.367011
				0.363597
				0.361095
				0.359734
				0.355373
				0.362743
				0.366673
				0.368218
				0.369396
				0.371322
				0.373442
				0.375804
				0.378412
				0.381203
				0.384086
				0.386943
				0.389639
				0.392029
				0.393967
				0.395328
				0.396014
				0.395974
				0.39521
				0.393775
				0.391766
				0.389313
				0.386563
				0.383661
				0.380745
				0.377935
				0.375326
				0.372994
				0.370992
				0.369359
				0.368119
				0.367285
				0.366867
				0.366867
				0.367285
				0.368119
				0.369359
				0.370992
				0.372994
				0.375326
				0.377935
				0.380745
				0.383661
				0.386563
				0.389313
				0.391766
				0.393775
				0.39521
				0.395974
				0.396014
				0.395328
				0.393967
				0.392028
				0.389639
				0.386943
				0.384086
				0.381203
				0.378412
				0.375804
				0.373442
				0.371322
				0.369396
				0.368218
				0.366673
				0.362743
				0.368572
				0.370659
				0.372828
				0.373537
				0.374545
				0.375703
				0.376981
				0.37843
				0.380016
				0.38169
				0.383388
				0.385036
				0.386547
				0.387834
				0.388814
				0.38942
				0.389606
				0.389358
				0.388692
				0.387655
				0.386316
				0.384759
				0.383072
				0.381341
				0.379643
				0.37804
				0.376584
				0.37531
				0.374245
				0.373405
				0.372799
				0.372434
				0.372312
				0.372434
				0.372799
				0.373405
				0.374245
				0.37531
				0.376584
				0.37804
				0.379643
				0.381341
				0.383072
				0.384759
				0.386316
				0.387655
				0.388692
				0.389358
				0.389606
				0.38942
				0.388814
				0.387834
				0.386547
				0.385036
				0.383388
				0.38169
				0.380016
				0.37843
				0.376981
				0.375703
				0.374545
				0.373537
				0.372828
				0.370659
				0.373219
				0.375363
				0.376301
				0.376776
				0.37739
				0.378063
				0.378845
				0.379722
				0.380666
				0.381646
				0.38262
				0.38354
				0.384355
				0.385015
				0.385475
				0.385701
				0.385676
				0.3854
				0.384893
				0.384189
				0.383333
				0.382377
				0.381372
				0.380366
				0.379401
				0.378508
				0.377713
				0.377034
				0.376481
				0.376062
				0.375781
				0.375641
				0.375641
				0.375781
				0.376062
				0.376481
				0.377034
				0.377713
				0.378508
				0.379401
				0.380366
				0.381372
				0.382377
				0.383333
				0.384189
				0.384893
				0.3854
				0.385676
				0.385701
				0.385475
				0.385015
				0.384355
				0.38354
				0.38262
				0.381646
				0.380666
				0.379722
				0.378845
				0.378063
				0.377389
				0.376776
				0.376301
				0.375363
				0.373219
				0.375349
				0.376583
				0.377934
				0.378268
				0.37855
				0.378898
				0.37931
				0.379783
				0.380303
				0.380853
				0.381412
				0.381953
				0.382449
				0.382869
				0.383186
				0.383377
				0.383427
				0.383332
				0.383097
				0.382739
				0.382281
				0.381751
				0.381179
				0.380595
				0.380023
				0.379485
				0.378998
				0.378573
				0.378219
				0.377939
				0.377739
				0.377618
				0.377577
				0.377618
				0.377739
				0.377939
				0.378219
				0.378573
				0.378998
				0.379485
				0.380023
				0.380595
				0.381179
				0.381751
				0.382281
				0.382739
				0.383097
				0.383332
				0.383427
				0.383377
				0.383186
				0.382869
				0.382449
				0.381953
				0.381412
				0.380853
				0.380303
				0.379783
				0.37931
				0.378898
				0.37855
				0.378268
				0.377934
				0.376583
				0.377297
				0.378681
				0.379218
				0.379307
				0.379477
				0.379691
				0.379942
				0.380223
				0.380524
				0.380834
				0.381141
				0.381429
				0.381683
				0.381885
				0.382022
				0.382082
				0.38206
				0.381958
				0.38178
				0.381539
				0.381249
				0.380928
				0.380591
				0.380256
				0.379935
				0.379639
				0.379376
				0.379151
				0.378969
				0.37883
				0.378738
				0.378691
				0.378691
				0.378738
				0.37883
				0.378969
				0.379151
				0.379376
				0.379639
				0.379935
				0.380256
				0.380591
				0.380928
				0.381249
				0.381539
				0.38178
				0.381958
				0.38206
				0.382082
				0.382021
				0.381885
				0.381683
				0.381429
				0.381141
				0.380834
				0.380524
				0.380223
				0.379942
				0.379691
				0.379477
				0.379307
				0.379218
				0.378681
				0.377297
				0.378048
				0.378877
				0.379742
				0.379831
				0.379887
				0.380003
				0.380133
				0.380276
				0.380427
				0.380581
				0.380735
				0.380882
				0.381015
				0.381125
				0.381204
				0.381246
				0.381245
				0.381202
				0.381116
				0.380993
				0.380841
				0.380668
				0.380482
				0.380294
				0.38011
				0.379938
				0.379783
				0.379647
				0.379535
				0.379446
				0.379382
				0.379344
				0.379331
				0.379344
				0.379382
				0.379446
				0.379535
				0.379647
				0.379783
				0.379938
				0.38011
				0.380294
				0.380482
				0.380668
				0.380841
				0.380993
				0.381116
				0.381202
				0.381245
				0.381246
				0.381204
				0.381125
				0.381015
				0.380882
				0.380735
				0.380581
				0.380427
				0.380276
				0.380133
				0.380003
				0.379887
				0.379831
				0.379742
				0.378877
				0.379123
				0.379887
				0.380149
				0.380132
				0.380162
				0.380196
				0.380231
				0.38027
				0.380317
				0.380373
				0.380435
				0.380499
				0.38056
				0.380612
				0.380649
				0.380665
				0.380659
				0.380629
				0.380576
				0.380503
				0.380414
				0.380315
				0.38021
				0.380105
				0.380003
				0.379909
				0.379825
				0.379753
				0.379694
				0.37965
				0.37962
				0.379605
				0.379605
				0.37962
				0.37965
				0.379694
				0.379753
				0.379825
				0.379909
				0.380003
				0.380105
				0.38021
				0.380315
				0.380414
				0.380503
				0.380576
				0.380629
				0.380659
				0.380665
				0.380649
				0.380612
				0.38056
				0.380499
				0.380435
				0.380373
				0.380317
				0.38027
				0.380231
				0.380196
				0.380162
				0.380132
				0.380149
				0.379887
				0.379123
				0.37964
				0.379872
				0.380105
				0.380115
				0.380108
				0.380107
				0.380102
				0.3801
				0.380103
				0.380113
				0.380131
				0.380155
				0.380182
				0.380208
				0.380232
				0.380248
				0.380255
				0.380252
				0.380237
				0.380213
				0.380179
				0.380139
				0.380094
				0.380047
				0.380001
				0.379956
				0.379916
				0.37988
				0.37985
				0.379826
				0.379809
				0.379799
				0.379795
				0.379799
				0.379809
				0.379826
				0.37985
				0.37988
				0.379916
				0.379956
				0.380001
				0.380047
				0.380094
				0.380139
				0.380179
				0.380213
				0.380237
				0.380252
				0.380255
				0.380248
				0.380232
				0.380208
				0.380182
				0.380155
				0.380131
				0.380113
				0.380103
				0.3801
				0.380102
				0.380107
				0.380108
				0.380115
				0.380105
				0.379872
			</DataArray>
			<DataArray type="Float64" Name="pressure" Format="ascii">
				1.3459
				1.34379
				1.33631
				1.32149
				1.2984
				1.26719
				1.22877
				1.18455
				1.13617
				1.08529
				1.03366
				0.983066
				0.935506
				0.893287
				0.859233
				0.836698
				0.828821
				0.836917
				0.859558
				0.893627
				0.935772
				0.983176
				1.03351
				1.08483
				1.13545
				1.18388
				1.22877
				1.26893
				1.3033
				1.331
				1.3513
				1.36369
				1.36786
				1.36369
				1.3513
				1.331
				1.3033
				1.26893
				1.22877
				1.18388
				1.13545
				1.08483
				1.03351
				0.983176
				0.935772
				0.893627
				0.859558
				0.836918
				0.828821
				0.836699
				0.859233
				0.893287
				0.935506
				0.983067
				1.03366
				1.08529
				1.13617
				1.18455
				1.22877
				1.26719
				1.2984
				1.32149
				1.33631
				1.34379
				1.34395
				1.33982
				1.33007
				1.31356
				1.29013
				1.26031
				1.22506
				1.18556
				1.14311
				1.09908
				1.05493
				1.01231
				0.973142
				0.93972
				0.914834
				0.901399
				0.901464
				0.914952
				0.939803
				0.973113
				1.01214
				1.0546
				1.09859
				1.14252
				1.18503
				1.22493
				1.26115
				1.29279
				1.31906
				1.33934
				1.35313
				1.3601
				1.3601
				1.35313
				1.33934
				1.31906
				1.29279
				1.26115
				1.22493
				1.18503
				1.14252
				1.09859
				1.0546
				1.01214
				0.973113
				0.939803
				0.914952
				0.901464
				0.901399
				0.914834
				0.93972
				0.973143
				1.01231
				1.05493
				1.09908
				1.14311
				1.18556
				1.22506
				1.26031
				1.29013
				1.31356
				1.33007
				1.33982