<VTKFile type="UnstructuredGrid" version="0.1" byte_order="LittleEndian">
<UnstructuredGrid>
	<Piece NumberOfPoints="1088" NumberOfCells="2048">
		<CellData Scalars="density" Vectors="velocity">
			<DataArray type="Float64" Name="density" Format="ascii">
				0.978417
				0.978386
				0.97783
				0.978143
				0.976266
				0.977232
				0.973153
				0.975206
				0.967952
				0.971545
				0.960228
				0.965805
				0.949685
				0.957653
				0.936215
				0.946902
				0.919953
				0.93356
				0.901335
				0.917884
				0.88109
				0.900408
				0.860246
				0.881946
				0.840116
				0.86358
				0.822229
				0.846631
				0.808317
				0.832589
				0.800016
				0.822995
				0.798635
				0.819168
				0.804641
				0.821878
				0.817617
				0.831089
				0.836328
				0.846019
				0.85928
				0.86542
				0.884942
				0.887934
				0.911958
				0.912269
				0.939175
				0.937293
				0.965599
				0.962035
				0.99042
				0.98567
				1.01294
				1.0075
				1.03257
				1.02694
				1.04884
				1.04351
				1.06137
				1.0568
				1.06989
				1.0665
				1.07419
				1.07242
				1.07419
				1.0744
				1.06989
				1.07242
				1.06137
				1.0665
				1.04884
				1.0568
				1.03257
				1.04351
				1.01294
				1.02694
				0.99042
				1.0075
				0.965599
				0.98567
				0.939175
				0.962035
				0.911958
				0.937293
				0.884942
				0.912269
				0.85928
				0.887934
				0.836328
				0.86542
				0.817617
				0.846019
				0.804641
				0.831089
				0.798635
				0.821878
				0.800016
				0.819168
				0.808317
				0.822996
				0.822229
				0.832589
				0.840116
				0.846631
				0.860246
				0.863581
				0.88109
				0.881946
				0.901335
				0.900408
				0.919953
				0.917884
				0.936215
				0.93356
				0.949685
				0.946902
				0.960228
				0.957653
				0.967952
				0.965805
				0.973153
				0.971545
				0.976266
				0.975206
				0.97783
				0.977232
				0.978417
				0.978143
				0.980967
				0.981235
				0.980874
				0.981197
				0.980351
				0.980845
				0.978895
				0.979629
				0.976028
				0.976994
				0.971382
				0.972521
				0.964699
				0.965904
				0.955867
				0.956965
				0.94497
				0.945703
				0.932325
				0.932337
				0.918488
				0.917328
				0.904241
				0.901373
				0.890574
				0.885412
				0.878637
				0.870593
				0.869659
				0.858246
				0.864785
				0.849753
				0.864834
				0.846325
				0.870077
				0.848674
				0.880157
				0.856796
				0.894246
				0.869984
				0.911286
				0.887117
				0.930206
				0.90695
				0.950029
				0.928317
				0.969912
				0.9502
				0.989146
				0.971742
				1.00714
				0.992234
				1.02341
				1.01108
				1.03754
				1.02781
				1.04923
				1.04201
				1.0582
				1.05337
				1.06429
				1.06166
				1.06736
				1.0667
				1.06736
				1.06839
				1.06429
				1.0667
				1.0582
				1.06166
				1.04923
				1.05337
				1.03754
				1.04201
				1.02341
				1.02781
				1.00714
				1.01108
				0.989146
				0.992234
				0.969912
				0.971742
				0.950029
				0.9502
				0.930206
				0.928317
				0.911287
				0.906951
				0.894246
				0.887117
				0.880157
				0.869985
				0.870077
				0.856797
				0.864835
				0.848674
				0.864785
				0.846325
				0.869659
				0.849753
				0.878637
				0.858246
				0.890574
				0.870593
				0.904241
				0.885412
				0.918488
				0.901374
				0.932325
				0.917328
				0.94497
				0.932337
				0.955867
				0.945703
				0.964699
				0.956965
				0.971382
				0.965904
				0.976028
				0.972521
				0.978895
				0.976994
				0.980351
				0.979629
				0.980874
				0.980845
				0.980967
				0.981197
				0.983799
				0.98372
				0.984057
				0.983926
				0.984074
				0.984331
				0.983222
				0.984415
				0.981033
				0.983602
				0.977211
				0.98145
				0.971575
				0.977662
				0.964083
				0.972095
				0.954864
				0.964786
				0.944223
				0.955961
				0.932644
				0.946027
				0.920777
				0.93555
				0.909435
				0.925233
				0.899571
				0.915896
				0.892205
				0.908425
				0.888296
				0.903686
				0.888532
				0.90238
				0.893146
				0.904882
				0.901848
				0.911145
				0.913945
				0.920727
				0.928535
				0.932917
				0.94469
				0.946909
				0.961562
				0.961914
				0.978422
				0.977226
				0.994664
				0.992246
				1.00979
				1.00648
				1.02341
				1.01951
				1.0352
				1.03103
				1.0449
				1.04077
				1.05234
				1.04854
				1.05737
				1.05419
				1.05991
				1.05761
				1.05991
				1.05876
				1.05737
				1.05761
				1.05234
				1.05419
				1.0449
				1.04854
				1.0352
				1.04077
				1.02341
				1.03103
				1.00979
				1.01951
				0.994664
				1.00648
				0.978422
				0.992245
				0.961562
				0.977226
				0.94469
				0.961914
				0.928535
				0.946909
				0.913945
				0.932917
				0.901848
				0.920727
				0.893146
				0.911146
				0.888532
				0.904882
				0.888296
				0.90238
				0.892205
				0.903686
				0.899571
				0.908425
				0.909435
				0.915896
				0.920777
				0.925233
				0.932644
				0.93555
				0.944223
				0.946027
				0.954864
				0.955961
				0.964083
				0.964786
				0.971575
				0.972095
				0.977211
				0.977662
				0.981033
				0.98145
				0.983222
				0.983602
				0.984074
				0.984415
				0.984057
				0.984331
				0.983799
				0.983926
				0.986021
				0.98563
				0.986879
				0.986033
				0.988045
				0.986886
				0.988749
				0.987421
				0.988384
				0.986989
				0.986619
				0.985244
				0.983344
				0.982035
				0.978628
				0.977345
				0.972685
				0.971285
				0.965836
				0.964086
				0.958487
				0.956091
				0.951118
				0.947748
				0.944275
				0.939606
				0.938556
				0.932306
				0.934561
				0.926547
				0.932812
				0.923008
				0.933659
				0.922232
				0.9372
				0.924509
				0.943255
				0.929796
				0.951423
				0.937743
				0.961164
				0.947785
				0.971904
				0.95927
				0.983094
				0.971551
				0.994253
				0.984046
				1.00498
				0.996261
				1.01493
				1.00779
				1.02386
				1.01831
				1.03157
				1.02757
				1.03789
				1.03537
				1.04272
				1.04157
				1.04598
				1.04607
				1.04762
				1.04879
				1.04762
				1.04971
				1.04598
				1.04879
				1.04272
				1.04607
				1.03789
				1.04157
				1.03157
				1.03537
				1.02386
				1.02757
				1.01493
				1.01831
				1.00498
				1.00779
				0.994253
				0.996261
				0.983094
				0.984046
				0.971904
				0.971551
				0.961164
				0.95927
				0.951423
				0.947785
				0.943256
				0.937743
				0.9372
				0.929796
				0.933659
				0.924509
				0.932812
				0.922232
				0.934561
				0.923008
				0.938556
				0.926547
				0.944275
				0.932306
				0.951118
				0.939606
				0.958487
				0.947748
				0.965836
				0.956092
				0.972685
				0.964086
				0.978628
				0.971285
				0.983344
				0.977345
				0.986619
				0.982035
				0.988384
				0.985244
				0.988749
				0.986989
				0.988045
				0.987421
				0.986879
				0.986886
				0.986021
				0.986033
				0.986612
				0.986986
				0.987863
				0.987747
				0.989509
				0.989588
				0.990549
				0.991487
				0.990432
				0.992518
				0.989011
				0.992236
				0.986331
				0.990584
				0.982538
				0.987706
				0.977844
				0.98384
				0.972515
				0.979267
				0.966866
				0.974285
				0.961263
				0.969218
				0.956125
				0.964422
				0.951906
				0.960282
				0.949058
				0.957193
				0.947967
				0.955514
				0.948882
				0.955516
				0.951865
				0.957333
				0.956772
				0.960923
				0.963294
				0.96609
				0.971019
				0.972513
				0.979501
				0.979812
				0.98831
				0.987599
				0.997068
				0.99551
				1.00546
				1.00323
				1.01322
				1.01051
				1.02015
				1.01713
				1.02612
				1.02294
				1.031
				1.02783
				1.03471
				1.0317
				1.03722
				1.03451
				1.03848
				1.0362
				1.03848
				1.03677
				1.03722
				1.0362
				1.03471
				1.03451
				1.031
				1.0317
				1.02612
				1.02783
				1.02015
				1.02294
				1.01322
				1.01713
				1.00546
				1.01051
				0.997068
				1.00323
				0.98831
				0.99551
				0.979501
				0.987599
				0.971019
				0.979812
				0.963294
				0.972513
				0.956772
				0.96609
				0.951865
				0.960923
				0.948882
				0.957333
				0.947967
				0.955516
				0.949058
				0.955514
				0.951906
				0.957193
				0.956125
				0.960282
				0.961263
				0.964422
				0.966866
				0.969218
				0.972515
				0.974285
				0.977844
				0.979267
				0.982538
				0.983841
				0.986331
				0.987706
				0.989011
				0.990584
				0.990432
				0.992236
				0.990549
				0.992518
				0.989508
				0.991487
				0.987863
				0.989588
				0.986612
				0.987747
				0.987423
				0.98636
				0.989383
				0.987369
				0.992161
				0.989725
				0.994372
				0.99203
				0.995283
				0.993289
				0.994839
				0.993246
				0.993277
				0.992018
				0.990884
				0.989819
				0.987924
				0.986879
				0.984634
				0.983429
				0.981241
				0.979703
				0.977978
				0.975953
				0.975091
				0.97245
				0.972832
				0.969485
				0.971436
				0.967347
				0.971097
				0.966294
				0.97193
				0.966513
				0.973953
				0.968086
				0.977079
				0.970973
				0.981134
				0.975021
				0.985888
				0.97999
				0.991083
				0.985596
				0.996466
				0.991548
				1.00181
				0.997572
				1.00692
				1.00343
				1.01164
				1.00893
				1.01585
				1.01393
				1.01946
				1.01829
				1.02241
				1.02195
				1.02465
				1.02484
				1.02615
				1.02693
				1.02691
				1.02819
				1.02691
				1.02862
				1.02615
				1.02819
				1.02465
				1.02693
				1.02241
				1.02484
				1.01946
				1.02195
				1.01585
				1.01829
				1.01164
				1.01393
				1.00692
				1.00893
				1.00181
				1.00343
				0.996466
				0.997572
				0.991082
				0.991548
				0.985888
				0.985596
				0.981134
				0.97999
				0.977079
				0.975021
				0.973953
				0.970973
				0.97193
				0.968086
				0.971097
				0.966513
				0.971436
				0.966294
				0.972832
				0.967347
				0.975091
				0.969485
				0.977978
				0.97245
				0.981241
				0.975953
				0.984634
				0.979703
				0.987924
				0.983429
				0.990884
				0.986879
				0.993277
				0.989819
				0.994839
				0.992018
				0.995283
				0.993246
				0.994372
				0.993289
				0.992161
				0.99203
				0.989383
				0.989725
				0.987423
				0.987369
				0.986349
				0.986968
				0.988742
				0.988304
				0.991974
				0.991455
				0.994415
				0.994613
				0.995475
				0.996531
				0.995305
				0.997023
				0.994218
				0.99641
				0.992485
				0.995049
				0.990326
				0.993212
				0.987931
				0.991101
				0.985479
				0.988885
				0.983151
				0.986721
				0.98113
				0.984767
				0.9796
				0.983183
				0.978727
				0.982119
				0.978643
				0.981705
				0.979418
				0.982028
				0.981055
				0.98312
				0.983484
				0.98495
				0.986574
				0.98743
				0.990156
				0.990425
				0.994041
				0.993777
				0.998045
				0.997319
				1.002
				1.00089
				1.00577
				1.00436
				1.00924
				1.00761
				1.01232
				1.01056
				1.01496
				1.01313
				1.0171
				1.01528
				1.01873
				1.01697
				1.01982
				1.01819
				1.02037
				1.01893
				1.02037
				1.01918
				1.01982
				1.01893
				1.01873
				1.01819
				1.0171
				1.01697
				1.01496
				1.01528
				1.01232
				1.01313
				1.00924
				1.01056
				1.00577
				1.00761
				1.002
				1.00436
				0.998045
				1.00089
				0.994041
				0.997319
				0.990156
				0.993777
				0.986574
				0.990425
				0.983484
				0.98743
				0.981055
				0.98495
				0.979418
				0.98312
				0.978643
				0.982028
				0.978727
				0.981705
				0.9796
				0.982119
				0.98113
				0.983183
				0.983151
				0.984767
				0.985479
				0.986722
				0.987931
				0.988885
				0.990326
				0.991101
				0.992485
				0.993212
				0.994218
				0.995049
				0.995305
				0.99641
				0.995475
				0.997023
				0.994415
				0.996531
				0.991974
				0.994613
				0.988742
				0.991455
				0.986349
				0.988304
				0.98741
				0.985913
				0.990206
				0.987481
				0.993929
				0.991053
				0.996684
				0.994434
				0.997918
				0.996402
				0.997984
				0.997008
				0.997331
				0.996681
				0.996259
				0.99576
				0.994956
				0.994472
				0.993552
				0.992982
				0.992159
				0.991423
				0.990878
				0.989916
				0.98981
				0.98858
				0.98905
				0.98753
				0.988683
				0.986871
				0.988769
				0.986691
				0.989339
				0.987046
				0.990387
				0.987949
				0.99187
				0.989372
				0.993715
				0.991249
				0.995825
				0.99348
				0.998097
				0.995951
				1.00043
				0.998542
				1.00272
				1.00114
				1.0049
				1.00365
				1.0069
				1.006
				1.00868
				1.00811
				1.01019
				1.00995
				1.01142
				1.01148
				1.01235
				1.01269
				1.01298
				1.01356
				1.01329
				1.01408
				1.01329
				1.01426
				1.01298
				1.01408
				1.01235
				1.01356
				1.01142
				1.01269
				1.01019
				1.01148
				1.00868
				1.00995
				1.0069
				1.00811
				1.0049
				1.006
				1.00272
				1.00365
				1.00043
				1.00114
				0.998097
				0.998542
				0.995825
				0.995951
				0.993715
				0.99348
				0.99187
				0.991249
				0.990387
				0.989372
				0.989339
				0.987949
				0.988769
				0.987046
				0.988683
				0.986692
				0.98905
				0.986871
				0.98981
				0.98753
				0.990878
				0.98858
				0.992159
				0.989916
				0.993552
				0.991423
				0.994956
				0.992982
				0.996259
				0.994472
				0.997331
				0.99576
				0.997984
				0.996681
				0.997918
				0.997008
				0.996684
				0.996402
				0.993929
				0.994434
				0.990206
				0.991053
				0.98741
				0.987481
				0.986828
				0.987535
				0.989928
				0.989194
				0.993858
				0.992901
				0.996583
				0.996269
				0.997779
				0.998113
				0.997958
				0.998667
				0.997563
				0.998483
				0.996848
				0.997915
				0.99596
				0.99715
				0.995003
				0.996296
				0.99406
				0.995431
				0.993208
				0.994623
				0.992518
				0.993934
				0.992058
				0.993424
				0.991882
				0.993146
				0.992032
				0.993141
				0.992523
				0.993435
				0.993347
				0.99403
				0.99447
				0.994908
				0.995838
				0.996028
				0.997382
				0.997336
				0.999028
				0.998769
				1.0007
				1.00026
				1.00235
				1.00175
				1.0039
				1.00318
				1.00532
				1.00452
				1.00657
				1.00572
				1.00763
				1.00676
				1.0085
				1.00762
				1.00915
				1.0083
				1.00959
				1.00879
				1.0098
				1.00909
				1.0098
				1.00918
				1.00959
				1.00909
				1.00915
				1.00879
				1.0085
				1.0083
				1.00763
				1.00762
				1.00657
				1.00676
				1.00532
				1.00572
				1.0039
				1.00452
				1.00235
				1.00318
				1.0007
				1.00175
				0.999028
				1.00026
				0.997382
				0.998769
				0.995838
				0.997336
				0.99447
				0.996028
				0.993347
				0.994908
				0.992523
				0.99403
				0.992032
				0.993435
				0.991882
				0.993142
				0.992058
				0.993146
				0.992518
				0.993424
				0.993208
				0.993934
				0.99406
				0.994623
				0.995003
				0.995431
				0.99596
				0.996296
				0.996848
				0.99715
				0.997563
				0.997915
				0.997958
				0.998483
				0.997779
				0.998667
				0.996583
				0.998113
				0.993858
				0.996269
				0.989928
				0.992901
				0.986828
				0.989194
				0.989004
				0.987378
				0.991979
				0.989177
				0.99561
				0.993057
				0.997963
				0.996362
				0.998896
				0.998052
				0.999019
				0.998577
				0.99877
				0.99851
				0.99835
				0.998155
				0.997857
				0.997656
				0.997345
				0.997095
				0.996859
				0.99653
				0.996438
				0.99601
				0.996118
				0.99558
				0.995933
				0.995282
				0.995909
				0.99515
				0.996065
				0.995212
				0.996407
				0.995482
				0.996928
				0.99596
				0.997607
				0.996631
				0.998414
				0.997464
				0.99931
				0.99842
				1.00026
				0.999456
				1.00121
				1.00052
				1.00214
				1.00158
				1.00302
				1.0026
				1.00382
				1.00353
				1.00452
				1.00437
				1.00512
				1.0051
				1.0056
				1.0057
				1.00597
				1.00618
				1.00621
				1.00651
				1.00633
				1.00672
				1.00633
				1.00679
				1.00621
				1.00672
				1.00597
				1.00651
				1.0056
				1.00618
				1.00512
				1.0057
				1.00452
				1.0051
				1.00382
				1.00437
				1.00302
				1.00353
				1.00214
				1.0026
				1.00121
				1.00158
				1.00026
				1.00052
				0.99931
				0.999456
				0.998414
				0.99842
				0.997607
				0.997464
				0.996928
				0.996631
				0.996407
				0.99596
				0.996065
				0.995482
				0.995909
				0.995212
				0.995933
				0.99515
				0.996118
				0.995282
				0.996438
				0.99558
				0.996859
				0.99601
				0.997345
				0.99653
				0.997857
				0.997095
				0.99835
				0.997656
				0.99877
				0.998155
				0.999019
				0.99851
				0.998896
				0.998577
				0.997963
				0.998052
				0.99561
				0.996362
				0.991979
				0.993057
				0.989004
				0.989177
				0.98925
				0.989912
				0.992339
				0.991524
				0.995916
				0.994909
				0.998058
				0.997637
				0.998856
				0.998908
				0.998993
				0.999247
				0.998855
				0.999195
				0.998597
				0.99899
				0.998288
				0.998724
				0.997969
				0.99844
				0.997671
				0.998166
				0.997421
				0.997927
				0.997244
				0.997743
				0.997163
				0.997636
				0.997196
				0.997623
				0.997353
				0.997716
				0.997638
				0.997922
				0.998044
				0.998238
				0.998554
				0.998655
				0.999148
				0.999155
				0.999798
				0.999718
				1.00048
				1.00032
				1.00116
				1.00093
				1.00182
				1.00153
				1.00243
				1.00211
				1.00299
				1.00264
				1.00348
				1.00311
				1.0039
				1.00352
				1.00423
				1.00385
				1.00448
				1.00412
				1.00465
				1.00431
				1.00474
				1.00442
				1.00474
				1.00446
				1.00465
				1.00442
				1.00448
				1.00431
				1.00423
				1.00412
				1.0039
				1.00385
				1.00348
				1.00352
				1.00299
				1.00311
				1.00243
				1.00264
				1.00182
				1.00211
				1.00116
				1.00153
				1.00048
				1.00093
				0.999798
				1.00032
				0.999148
				0.999718
				0.998554
				0.999155
				0.998044
				0.998655
				0.997638
				0.998238
				0.997353
				0.997922
				0.997196
				0.997716
				0.997163
				0.997623
				0.997244
				0.997636
				0.997421
				0.997743
				0.997671
				0.997927
				0.997969
				0.998166
				0.998288
				0.99844
				0.998597
				0.998724
				0.998855
				0.99899
				0.998993
				0.999195
				0.998856
				0.999247
				0.998058
				0.998908
				0.995916
				0.997637
				0.992339
				0.994909
				0.98925
				0.991524
				0.99179
				0.990354
				0.994349
				0.992009
				0.9972
				0.995363
				0.998794
				0.997881
				0.999324
				0.998953
				0.999399
				0.999232
				0.999324
				0.999224
				0.999198
				0.999112
				0.999057
				0.998958
				0.998918
				0.998794
				0.998798
				0.998638
				0.998708
				0.998508
				0.99866
				0.998418
				0.998666
				0.998382
				0.998734
				0.998412
				0.998869
				0.998515
				0.999071
				0.998694
				0.999334
				0.998948
				0.999651
				0.999268
				1.00001
				0.999642
				1.00039
				1.00005
				1.00079
				1.00049
				1.00118
				1.00093
				1.00156
				1.00136
				1.00191
				1.00176
				1.00223
				1.00214
				1.0025
				1.00247
				1.00274
				1.00275
				1.00293
				1.00298
				1.00307
				1.00317
				1.00316
				1.0033
				1.00321
				1.00338
				1.00321
				1.0034
				1.00316
				1.00338
				1.00307
				1.0033
				1.00293
				1.00317
				1.00274
				1.00298
				1.0025
				1.00275
				1.00223
				1.00247
				1.00191
				1.00214
				1.00156
				1.00176
				1.00118
				1.00136
				1.00079
				1.00093
				1.00039
				1.00049
				1.00001
				1.00005
				0.999651
				0.999642
				0.999334
				0.999268
				0.999071
				0.998948
				0.998869
				0.998694
				0.998734
				0.998515
				0.998666
				0.998412
				0.99866
				0.998382
				0.998708
				0.998418
				0.998798
				0.998508
				0.998918
				0.998638
				0.999057
				0.998794
				0.999198
				0.998958
				0.999324
				0.999112
				0.999399
				0.999224
				0.999324
				0.999232
				0.998794
				0.998953
				0.9972
				0.997881
				0.994349
				0.995363
				0.99179
				0.992009
				0.992319
				0.992814
				0.994859
				0.99412
				0.997542
				0.996708
				0.998916
				0.998569
				0.999336
				0.999307
				0.999411
				0.999485
				0.999386
				0.999493
				0.999328
				0.999453
				0.999259
				0.9994
				0.999194
				0.999347
				0.999142
				0.999303
				0.999111
				0.999274
				0.99911
				0.999269
				0.999147
				0.999294
				0.999225
				0.999354
				0.999349
				0.999453
				0.999517
				0.999591
				0.999726
				0.999767
				0.999969
				0.999976
				1.00024
				1.00021
				1.00052
				1.00046
				1.00081
				1.00072
				1.00109
				1.00098
				1.00136
				1.00124
				1.00161
				1.00147
				1.00184
				1.00169
				1.00203
				1.00187
				1.0022
				1.00204
				1.00233
				1.00217
				1.00243
				1.00227
				1.00249
				1.00235
				1.00253
				1.00239
				1.00253
				1.00241
				1.00249
				1.00239
				1.00243
				1.00235
				1.00233
				1.00227
				1.0022
				1.00217
				1.00203
				1.00204
				1.00184
				1.00187
				1.00161
				1.00169
				1.00136
				1.00147
				1.00109
				1.00124
				1.00081
				1.00098
				1.00052
				1.00072
				1.00024
				1.00046
				0.999969
				1.00021
				0.999726
				0.999976
				0.999517
				0.999767
				0.999349
				0.999591
				0.999225
				0.999453
				0.999147
				0.999354
				0.99911
				0.999294
				0.999111
				0.999269
				0.999142
				0.999274
				0.999194
				0.999303
				0.999259
				0.999347
				0.999328
				0.9994
				0.999386
				0.999453
				0.999411
				0.999493
				0.999336
				0.999485
				0.998916
				0.999307
				0.997542
				0.998569
				0.994859
				0.996708
				0.992319
				0.99412
				0.994327
				0.993314
				0.996241
				0.994603
				0.998215
				0.997073
				0.999195
				0.99873
				0.999491
				0.999332
				0.999563
				0.999483
				0.999582
				0.999518
				0.999588
				0.999522
				0.99959
				0.999517
				0.999596
				0.99951
				0.999609
				0.99951
				0.999634
				0.999519
				0.999675
				0.999545
				0.999735
				0.999591
				0.999817
				0.999661
				0.999923
				0.999757
				1.00005
				0.999879
				1.0002
				1.00003
				1.00036
				1.00019
				1.00053
				1.00038
				1.00071
				1.00057
				1.00089
				1.00076
				1.00106
				1.00096
				1.00122
				1.00114
				1.00137
				1.00131
				1.0015
				1.00147
				1.00162
				1.0016
				1.00171
				1.00172
				1.00179
				1.00181
				1.00184
				1.00189
				1.00188
				1.00194
				1.0019
				1.00197
				1.0019
				1.00198
				1.00188
				1.00197
				1.00184
				1.00194
				1.00179
				1.00189
				1.00171
				1.00181
				1.00162
				1.00172
				1.0015
				1.0016
				1.00137
				1.00147
				1.00122
				1.00131
				1.00106
				1.00114
				1.00089
				1.00096
				1.00071
				1.00076
				1.00053
				1.00057
				1.00036
				1.00038
				1.0002
				1.00019
				1.00005
				1.00003
				0.999923
				0.999879
				0.999817
				0.999757
				0.999735
				0.999661
				0.999675
				0.999591
				0.999634
				0.999545
				0.999609
				0.999519
				0.999596
				0.99951
				0.99959
				0.99951
				0.999588
				0.999517
				0.999582
				0.999522
				0.999563
				0.999518
				0.999491
				0.999483
				0.999195
				0.999332
				0.998215
				0.99873
				0.996241
				0.997073
				0.994327
				0.994603
				0.994756
				0.994873
				0.996576
				0.995861
				0.998371
				0.997733
				0.999213
				0.998982
				0.999473
				0.999452
				0.999567
				0.999596
				0.99962
				0.99966
				0.999659
				0.999703
				0.999691
				0.999739
				0.999723
				0.999773
				0.999758
				0.999808
				0.999801
				0.999849
				0.999854
				0.999899
				0.99992
				0.999959
				1
				1.00003
				1.0001
				1.00012
				1.0002
				1.00021
				1.00032
				1.00032
				1.00045
				1.00044
				1.00059
				1.00056
				1.00072
				1.00069
				1.00086
				1.00081
				1.00098
				1.00093
				1.0011
				1.00104
				1.00121
				1.00114
				1.0013
				1.00124
				1.00138
				1.00132
				1.00145
				1.00138
				1.0015
				1.00144
				1.00154
				1.00148
				1.00157
				1.00151
				1.00158
				1.00153
				1.00158
				1.00153
				1.00157
				1.00153
				1.00154
				1.00151
				1.0015
				1.00148
				1.00145
				1.00144
				1.00138
				1.00138
				1.0013
				1.00132
				1.00121
				1.00124
				1.0011
				1.00114
				1.00098
				1.00104
				1.00086
				1.00093
				1.00072
				1.00081
				1.00059
				1.00069
				1.00045
				1.00056
				1.00032
				1.00044
				1.0002
				1.00032
				1.0001
				1.00021
				1
				1.00012
				0.99992
				1.00003
				0.999854
				0.999959
				0.999801
				0.999899
				0.999758
				0.999849
				0.999723
				0.999808
				0.999691
				0.999773
				0.999659
				0.999739
				0.99962
				0.999703
				0.999567
				0.99966
				0.999473
				0.999596
				0.999213
				0.999452
				0.998371
				0.998982
				0.996576
				0.997733
				0.994756
				0.995861
				0.995326
				0.994885
				0.996805
				0.995823
				0.998287
				0.997565
				0.999046
				0.99871
				0.999356
				0.999183
				0.999524
				0.999398
				0.999649
				0.999543
				0.999752
				0.999658
				0.999842
				0.999753
				0.999924
				0.999836
				1
				0.999914
				1.00009
				0.999991
				1.00017
				1.00007
				1.00026
				1.00016
				1.00036
				1.00025
				1.00047
				1.00035
				1.00058
				1.00046
				1.0007
				1.00058
				1.00081
				1.0007
				1.00092
				1.00082
				1.00103
				1.00093
				1.00113
				1.00105
				1.00122
				1.00115
				1.0013
				1.00125
				1.00137
				1.00133
				1.00143
				1.00141
				1.00148
				1.00147
				1.00152
				1.00152
				1.00155
				1.00156
				1.00157
				1.0016
				1.00159
				1.00162
				1.0016
				1.00163
				1.0016
				1.00163
				1.00159
				1.00163
				1.00157
				1.00162
				1.00155
				1.0016
				1.00152
				1.00156
				1.00148
				1.00152
				1.00143
				1.00147
				1.00137
				1.00141
				1.0013
				1.00133
				1.00122
				1.00125
				1.00113
				1.00115
				1.00103
				1.00105
				1.00092
				1.00093
				1.00081
				1.00082
				1.0007
				1.0007
				1.00058
				1.00058
				1.00047
				1.00046
				1.00036
				1.00035
				1.00026
				1.00025
				1.00017
				1.00016
				1.00009
				1.00007
				1
				0.999991
				0.999924
				0.999914
				0.999842
				0.999836
				0.999752
				0.999753
				0.999649
				0.999658
				0.999524
				0.999543
				0.999356
				0.999398
				0.999046
				0.999183
				0.998287
				0.99871
				0.996805
				0.997565
				0.995326
				0.995823
			</DataArray>
			<DataArray type="Float64" Name="mach-number" Format="ascii">
				0.0137443
				0.018927
				0.0374951
				0.0317274
				0.0669753
				0.0573214
				0.102564
				0.0898656
				0.144151
				0.128632
				0.19112
				0.172979
				0.242643
				0.222074
				0.297737
				0.274934
				0.35527
				0.330425
				0.413955
				0.387294
				0.472315
				0.444124
				0.528648
				0.499338
				0.580948
				0.551152
				0.6269
				0.597534
				0.66386
				0.636264
				0.68924
				0.66502
				0.701017
				0.681872
				0.698551
				0.685727
				0.682737
				0.676824
				0.655707
				0.656516
				0.619911
				0.626836
				0.577602
				0.58981
				0.530584
				0.54723
				0.480191
				0.500511
				0.427406
				0.450734
				0.372915
				0.39873
				0.317219
				0.34512
				0.260687
				0.290424
				0.203606
				0.235118
				0.146245
				0.17977
				0.0890248
				0.125452
				0.0342166
				0.0756479
				0.0342166
				0.0487172
				0.0890248
				0.0756479
				0.146245
				0.125452
				0.203606
				0.17977
				0.260687
				0.235118
				0.317219
				0.290424
				0.372915
				0.34512
				0.427406
				0.39873
				0.480191
				0.450734
				0.530583
				0.500511
				0.577602
				0.54723
				0.619911
				0.58981
				0.655707
				0.626835
				0.682737
				0.656516
				0.698551
				0.676824
				0.701017
				0.685726
				0.68924
				0.681872
				0.66386
				0.66502
				0.626899
				0.636264
				0.580948
				0.597533
				0.528648
				0.551152
				0.472315
				0.499338
				0.413955
				0.444124
				0.35527
				0.387294
				0.297736
				0.330425
				0.242643
				0.274933
				0.19112
				0.222074
				0.144151
				0.172978
				0.102564
				0.128632
				0.0669752
				0.0898656
				0.0374951
				0.0573214
				0.0137443
				0.0317274
				0.0508253
				0.0344272
				0.0698391
				0.045408
				0.100141
				0.0709731
				0.137307
				0.104709
				0.179422
				0.144494
				0.225268
				0.189136
				0.273701
				0.237541
				0.323565
				0.28855
				0.373722
				0.34096
				0.423055
				0.393562
				0.470434
				0.445137
				0.514664
				0.494417
				0.554407
				0.540016
				0.588153
				0.580358
				0.61426
				0.613649
				0.631162
				0.637981
				0.637724
				0.651668
				0.633627
				0.653742
				0.619477
				0.644333
				0.596597
				0.624616
				0.566594
				0.596355
				0.531034
				0.561396
				0.491274
				0.521372
				0.448424
				0.477605
				0.403394
				0.431125
				0.356954
				0.382738
				0.309827
				0.333106
				0.262808
				0.28284
				0.216994
				0.232625
				0.17424
				0.183487
				0.138202
				0.137496
				0.115924
				0.0999383
				0.115924
				0.0836989
				0.138202
				0.0999383
				0.17424
				0.137496
				0.216994
				0.183487
				0.262809
				0.232625
				0.309826
				0.28284
				0.356954
				0.333106
				0.403394
				0.382738
				0.448424
				0.431125
				0.491274
				0.477605
				0.531034
				0.521372
				0.566594
				0.561396
				0.596597
				0.596355
				0.619477
				0.624616
				0.633626
				0.644333
				0.637724
				0.653742
				0.631162
				0.651668
				0.61426
				0.63798
				0.588153
				0.613649
				0.554407
				0.580357
				0.514664
				0.540016
				0.470434
				0.494417
				0.423054
				0.445137
				0.373722
				0.393562
				0.323565
				0.34096
				0.273701
				0.28855
				0.225268
				0.237541
				0.179422
				0.189136
				0.137307
				0.144494
				0.10014
				0.104709
				0.069839
				0.0709729
				0.0508252
				0.0454079
				0.0698969
				0.0825268
				0.0894743
				0.0932281
				0.121301
				0.120438
				0.15975
				0.156482
				0.201931
				0.196726
				0.246217
				0.238933
				0.291371
				0.281796
				0.336353
				0.324341
				0.380309
				0.365821
				0.422521
				0.405653
				0.462317
				0.443325
				0.498948
				0.478267
				0.531491
				0.509757
				0.558804
				0.536869
				0.579573
				0.558491
				0.592508
				0.573452
				0.596651
				0.580747
				0.591704
				0.579827
				0.578135
				0.570775
				0.55702
				0.55429
				0.529718
				0.531471
				0.497602
				0.503564
				0.461898
				0.471773
				0.423654
				0.437176
				0.38376
				0.400723
				0.34302
				0.36327
				0.30224