<VTKFile type="UnstructuredGrid" version="0.1" byte_order="LittleEndian">
<UnstructuredGrid>
	<Piece NumberOfPoints="1088" NumberOfCells="2048">
		<CellData Scalars="density" Vectors="velocity">
			<DataArray type="Float64" Name="density" Format="ascii">
				0.962297
				0.963999
				0.961539
				0.963739
				0.95979
				0.962823
				0.956677
				0.96091
				0.951821
				0.957583
				0.944917
				0.952485
				0.935775
				0.945368
				0.924348
				0.936121
				0.910765
				0.924786
				0.895388
				0.911603
				0.878811
				0.897034
				0.861884
				0.88177
				0.845709
				0.866739
				0.831573
				0.853063
				0.820937
				0.842012
				0.815157
				0.834867
				0.815324
				0.832715
				0.82187
				0.836202
				0.834548
				0.845355
				0.852413
				0.859598
				0.874242
				0.877939
				0.898692
				0.899224
				0.924517
				0.922298
				0.950616
				0.946106
				0.976023
				0.969716
				0.99994
				0.992326
				1.02167
				1.01325
				1.04064
				1.03191
				1.05638
				1.04783
				1.06851
				1.06061
				1.07675
				1.06995
				1.08092
				1.07564
				1.08092
				1.07755
				1.07675
				1.07564
				1.06851
				1.06995
				1.05638
				1.06061
				1.04064
				1.04783
				1.02167
				1.03191
				0.99994
				1.01325
				0.976023
				0.992326
				0.950616
				0.969716
				0.924517
				0.946106
				0.898692
				0.922298
				0.874242
				0.899224
				0.852413
				0.877939
				0.834548
				0.859598
				0.82187
				0.845355
				0.815325
				0.836202
				0.815157
				0.832715
				0.820937
				0.834868
				0.831573
				0.842012
				0.845709
				0.853063
				0.861884
				0.866739
				0.878811
				0.88177
				0.895388
				0.897034
				0.910765
				0.911603
				0.924348
				0.924786
				0.935775
				0.936121
				0.944917
				0.945369
				0.951821
				0.952485
				0.956677
				0.957583
				0.95979
				0.96091
				0.961539
				0.962823
				0.962297
				0.963739
				0.967988
				0.967075
				0.967874
				0.966967
				0.967378
				0.966491
				0.966077
				0.96526
				0.963563
				0.962841
				0.959529
				0.95888
				0.953792
				0.953142
				0.946292
				0.945505
				0.937123
				0.935984
				0.926556
				0.924763
				0.915064
				0.912223
				0.903317
				0.898961
				0.892171
				0.88579
				0.882622
				0.873716
				0.875724
				0.863898
				0.872442
				0.857518
				0.873465
				0.855597
				0.879038
				0.858739
				0.888907
				0.866978
				0.902413
				0.879772
				0.918671
				0.8962
				0.936736
				0.915184
				0.955713
				0.935663
				0.974803
				0.956683
				0.993321
				0.977417
				1.01068
				0.997171
				1.02641
				1.01537
				1.04009
				1.03152
				1.05141
				1.04525
				1.06012
				1.05624
				1.06602
				1.06425
				1.06901
				1.06913
				1.06901
				1.07076
				1.06602
				1.06913
				1.06012
				1.06425
				1.05141
				1.05624
				1.04009
				1.04525
				1.02641
				1.03152
				1.01068
				1.01537
				0.993321
				0.997171
				0.974803
				0.977417
				0.955713
				0.956683
				0.936736
				0.935663
				0.918671
				0.915184
				0.902413
				0.8962
				0.888907
				0.879772
				0.879038
				0.866978
				0.873465
				0.858739
				0.872443
				0.855597
				0.875724
				0.857519
				0.882622
				0.863898
				0.892171
				0.873716
				0.903317
				0.88579
				0.915064
				0.898961
				0.926556
				0.912223
				0.937123
				0.924763
				0.946292
				0.935984
				0.953792
				0.945505
				0.959529
				0.953142
				0.963563
				0.95888
				0.966077
				0.962841
				0.967378
				0.96526
				0.967874
				0.966491
				0.967988
				0.966967
				0.970785
				0.97202
				0.970921
				0.972194
				0.970866
				0.972551
				0.970154
				0.972675
				0.968375
				0.972081
				0.965261
				0.970382
				0.96066
				0.967332
				0.954528
				0.962816
				0.946956
				0.956856
				0.938183
				0.949624
				0.928618
				0.941452
				0.918834
				0.932827
				0.90956
				0.924372
				0.901647
				0.916824
				0.895998
				0.910971
				0.893444
				0.907574
				0.894575
				0.907239
				0.899601
				0.910292
				0.908298
				0.916709
				0.920087
				0.926129
				0.934191
				0.937952
				0.949777
				0.951469
				0.96606
				0.965967
				0.98235
				0.980785
				0.998063
				0.99535
				1.01271
				1.00918
				1.02591
				1.02187
				1.03735
				1.0331
				1.04676
				1.0426
				1.05398
				1.05019
				1.05887
				1.05572
				1.06133
				1.05907
				1.06133
				1.0602
				1.05887
				1.05907
				1.05398
				1.05572
				1.04676
				1.05019
				1.03735
				1.0426
				1.02591
				1.03309
				1.01271
				1.02187
				0.998063
				1.00918
				0.98235
				0.99535
				0.96606
				0.980785
				0.949777
				0.965967
				0.934191
				0.951469
				0.920087
				0.937952
				0.908298
				0.926129
				0.899601
				0.916709
				0.894575
				0.910292
				0.893444
				0.907239
				0.895998
				0.907574
				0.901647
				0.910971
				0.90956
				0.916824
				0.918834
				0.924372
				0.928618
				0.932827
				0.938183
				0.941452
				0.946956
				0.949624
				0.954528
				0.956856
				0.96066
				0.962816
				0.965261
				0.967332
				0.968375
				0.970382
				0.970154
				0.972082
				0.970866
				0.972675
				0.970921
				0.972551
				0.970785
				0.972194
				0.975843
				0.974157
				0.97658
				0.974459
				0.977655
				0.975146
				0.97847
				0.975701
				0.978491
				0.975592
				0.977389
				0.974464
				0.975028
				0.972138
				0.97142
				0.968562
				0.96671
				0.963795
				0.961161
				0.95801
				0.955134
				0.9515
				0.949076
				0.94467
				0.943503
				0.938027
				0.938968
				0.932166
				0.936016
				0.927721
				0.935115
				0.925299
				0.936573
				0.925378
				0.940474
				0.928211
				0.946666
				0.933763
				0.954796
				0.941732
				0.964387
				0.951622
				0.974915
				0.962845
				0.985872
				0.974808
				0.996801
				0.986967
				1.00731
				0.99885
				1.01708
				1.01007
				1.02586
				1.02031
				1.03343
				1.02932
				1.03966
				1.03692
				1.04442
				1.04296
				1.04763
				1.04734
				1.04925
				1.05
				1.04925
				1.05089
				1.04763
				1.05
				1.04442
				1.04734
				1.03966
				1.04296
				1.03343
				1.03692
				1.02586
				1.02932
				1.01708
				1.02031
				1.00731
				1.01007
				0.996801
				0.99885
				0.985872
				0.986967
				0.974915
				0.974808
				0.964387
				0.962845
				0.954796
				0.951622
				0.946666
				0.941732
				0.940474
				0.933763
				0.936573
				0.928211
				0.935116
				0.925379
				0.936016
				0.925299
				0.938968
				0.927721
				0.943503
				0.932166
				0.949076
				0.938027
				0.955134
				0.94467
				0.961161
				0.9515
				0.96671
				0.95801
				0.97142
				0.963795
				0.975028
				0.968562
				0.977389
				0.972138
				0.978491
				0.974464
				0.97847
				0.975592
				0.977655
				0.975701
				0.97658
				0.975146
				0.975842
				0.974459
				0.976918
				0.978611
				0.97791
				0.979238
				0.97937
				0.980827
				0.980578
				0.982662
				0.980996
				0.98399
				0.980373
				0.98433
				0.978663
				0.983512
				0.975936
				0.981576
				0.972351
				0.978686
				0.968141
				0.975078
				0.9636
				0.971038
				0.959083
				0.966886
				0.954991
				0.962976
				0.951749
				0.959679
				0.949773
				0.957365
				0.949409
				0.956364
				0.950879
				0.95692
				0.954234
				0.959148
				0.959341
				0.96301
				0.965921
				0.968323
				0.973597
				0.974797
				0.981959
				0.982082
				0.990606
				0.989814
				0.999182
				0.997652
				1.00738
				1.0053
				1.01497
				1.0125
				1.02174
				1.01906
				1.02757
				1.02481
				1.03233
				1.02966
				1.03596
				1.0335
				1.0384
				1.03628
				1.03963
				1.03796
				1.03963
				1.03853
				1.0384
				1.03796
				1.03596
				1.03628
				1.03233
				1.0335
				1.02757
				1.02966
				1.02174
				1.02481
				1.01497
				1.01906
				1.00738
				1.0125
				0.999182
				1.0053
				0.990606
				0.997652
				0.981959
				0.989814
				0.973597
				0.982082
				0.965921
				0.974797
				0.959341
				0.968323
				0.954234
				0.96301
				0.950879
				0.959148
				0.949409
				0.95692
				0.949773
				0.956364
				0.951749
				0.957365
				0.954991
				0.959679
				0.959083
				0.962976
				0.9636
				0.966886
				0.968141
				0.971038
				0.972351
				0.975078
				0.975936
				0.978686
				0.978663
				0.981576
				0.980373
				0.983512
				0.980996
				0.98433
				0.980578
				0.98399
				0.97937
				0.982662
				0.97791
				0.980827
				0.976918
				0.979238
				0.980811
				0.978609
				0.982415
				0.979387
				0.984893
				0.981333
				0.987234
				0.983559
				0.9887
				0.98523
				0.98903
				0.985925
				0.98829
				0.985579
				0.986684
				0.984296
				0.984454
				0.982255
				0.981843
				0.979667
				0.979093
				0.976766
				0.976446
				0.973806
				0.97415
				0.971058
				0.972448
				0.968804
				0.971563
				0.967318
				0.971671
				0.966837
				0.972875
				0.967531
				0.975188
				0.96947
				0.978525
				0.972611
				0.982724
				0.976811
				0.987566
				0.981846
				0.992809
				0.987452
				0.998215
				0.993356
				1.00357
				0.999303
				1.00867
				1.00507
				1.01339
				1.01047
				1.01759
				1.01537
				1.0212
				1.01964
				1.02414
				1.02322
				1.02638
				1.02606
				1.02789
				1.0281
				1.02865
				1.02933
				1.02865
				1.02974
				1.02789
				1.02933
				1.02638
				1.0281
				1.02414
				1.02606
				1.0212
				1.02322
				1.01759
				1.01964
				1.01339
				1.01537
				1.00867
				1.01047
				1.00357
				1.00507
				0.998215
				0.999303
				0.992809
				0.993356
				0.987566
				0.987452
				0.982724
				0.981846
				0.978525
				0.976811
				0.975188
				0.972611
				0.972875
				0.96947
				0.971671
				0.967531
				0.971563
				0.966838
				0.972448
				0.967318
				0.97415
				0.968804
				0.976446
				0.971058
				0.979093
				0.973806
				0.981843
				0.976766
				0.984454
				0.979667
				0.986684
				0.982255
				0.98829
				0.984296
				0.98903
				0.985579
				0.9887
				0.985925
				0.987234
				0.98523
				0.984893
				0.983559
				0.982415
				0.981333
				0.980811
				0.979387
				0.980251
				0.982031
				0.982134
				0.983084
				0.98499
				0.985727
				0.987652
				0.98877
				0.989393
				0.99113
				0.990056
				0.992346
				0.989785
				0.992475
				0.988797
				0.991769
				0.987312
				0.990494
				0.985532
				0.988877
				0.983651
				0.987111
				0.981858
				0.985371
				0.980342
				0.983823
				0.979281
				0.982628
				0.978835
				0.981931
				0.979121
				0.981854
				0.980205
				0.982476
				0.982084
				0.983824
				0.984688
				0.985865
				0.987892
				0.988512
				0.991535
				0.991636
				0.995441
				0.995085
				0.999436
				0.998699
				1.00336
				1.00233
				1.00709
				1.00584
				1.01051
				1.00912
				1.01355
				1.01209
				1.01614
				1.01468
				1.01825
				1.01685
				1.01985
				1.01856
				1.02092
				1.01979
				1.02146
				1.02053
				1.02146
				1.02078
				1.02092
				1.02053
				1.01985
				1.01979
				1.01825
				1.01856
				1.01614
				1.01685
				1.01355
				1.01468
				1.01051
				1.01209
				1.00709
				1.00912
				1.00336
				1.00584
				0.999436
				1.00233
				0.995441
				0.998699
				0.991535
				0.995085
				0.987892
				0.991636
				0.984688
				0.988512
				0.982084
				0.985865
				0.980205
				0.983824
				0.979121
				0.982476
				0.978835
				0.981854
				0.979281
				0.981931
				0.980342
				0.982628
				0.981858
				0.983823
				0.983651
				0.985371
				0.985532
				0.987111
				0.987312
				0.988877
				0.988797
				0.990494
				0.989785
				0.991769
				0.990056
				0.992475
				0.989393
				0.992346
				0.987652
				0.99113
				0.98499
				0.98877
				0.982134
				0.985727
				0.980251
				0.983084
				0.983668
				0.981333
				0.985905
				0.98253
				0.989239
				0.98549
				0.992253
				0.988817
				0.994162
				0.991376
				0.994927
				0.992795
				0.994844
				0.993223
				0.994217
				0.992937
				0.993275
				0.99218
				0.992184
				0.991145
				0.991078
				0.989991
				0.990069
				0.988856
				0.989265
				0.987867
				0.988761
				0.987144
				0.988637
				0.986789
				0.98895
				0.986885
				0.989726
				0.98748
				0.990957
				0.988587
				0.992598
				0.990174
				0.994576
				0.992173
				0.996797
				0.994492
				0.99916
				0.997018
				1.00157
				0.999641
				1.00392
				1.00225
				1.00615
				1.00476
				1.0082
				1.0071
				1.01001
				1.0092
				1.01155
				1.01102
				1.0128
				1.01253
				1.01375
				1.01373
				1.01439
				1.01458
				1.01471
				1.0151
				1.01471
				1.01527
				1.01439
				1.0151
				1.01375
				1.01458
				1.0128
				1.01373
				1.01155
				1.01253
				1.01001
				1.01102
				1.0082
				1.0092
				1.00615
				1.0071
				1.00392
				1.00476
				1.00157
				1.00225
				0.99916
				0.999641
				0.996797
				0.997019
				0.994576
				0.994492
				0.992598
				0.992173
				0.990957
				0.990174
				0.989726
				0.988587
				0.98895
				0.98748
				0.988637
				0.986885
				0.988761
				0.986789
				0.989265
				0.987144
				0.99007
				0.987867
				0.991078
				0.988856
				0.992184
				0.989991
				0.993275
				0.991145
				0.994217
				0.99218
				0.994844
				0.992937
				0.994927
				0.993223
				0.994162
				0.992795
				0.992253
				0.991376
				0.989239
				0.988817
				0.985905
				0.98549
				0.983668
				0.98253
				0.98324
				0.98484
				0.985686
				0.986125
				0.98925
				0.989243
				0.992391
				0.992612
				0.994382
				0.995041
				0.995294
				0.99628
				0.995461
				0.996623
				0.99517
				0.996424
				0.994618
				0.995928
				0.993944
				0.99529
				0.993253
				0.994616
				0.992635
				0.993988
				0.992166
				0.993474
				0.991916
				0.993137
				0.991937
				0.99303
				0.992268
				0.993192
				0.992919
				0.993644
				0.993882
				0.994387
				0.995119
				0.995399
				0.996578
				0.99664
				0.998191
				0.998054
				0.999887
				0.999579
				1.0016
				1.00115
				1.00326
				1.00271
				1.00482
				1.0042
				1.00625
				1.00558
				1.0075
				1.00682
				1.00857
				1.0079
				1.00943
				1.00879
				1.01008
				1.00949
				1.01051
				1.00999
				1.01073
				1.0103
				1.01073
				1.0104
				1.01051
				1.0103
				1.01008
				1.00999
				1.00943
				1.00949
				1.00857
				1.00879
				1.0075
				1.0079
				1.00625
				1.00682
				1.00482
				1.00558
				1.00326
				1.0042
				1.0016
				1.00271
				0.999887
				1.00115
				0.998191
				0.999579
				0.996578
				0.998054
				0.995119
				0.99664
				0.993882
				0.995399
				0.992919
				0.994387
				0.992268
				0.993644
				0.991937
				0.993192
				0.991916
				0.99303
				0.992166
				0.993137
				0.992635
				0.993474
				0.993254
				0.993988
				0.993944
				0.994616
				0.994618
				0.99529
				0.99517
				0.995928
				0.995461
				0.996424
				0.995294
				0.996623
				0.994382
				0.99628
				0.992391
				0.995041
				0.98925
				0.992612
				0.985686
				0.989243
				0.98324
				0.986125
				0.986881
				0.984727
				0.98926
				0.986102
				0.992607
				0.989381
				0.995379
				0.992823
				0.996978
				0.995244
				0.997617
				0.996504
				0.997693
				0.99696
				0.997483
				0.996957
				0.997141
				0.996708
				0.996756
				0.996344
				0.996387
				0.995948
				0.996081
				0.995582
				0.995878
				0.995299
				0.995812
				0.995143
				0.995908
				0.99515
				0.996183
				0.995343
				0.99664
				0.995736
				0.997269
				0.996326
				0.99805
				0.997094
				0.998949
				0.99801
				0.999929
				0.999036
				1.00095
				1.00013
				1.00197
				1.00124
				1.00296
				1.00233
				1.00388
				1.00337
				1.00472
				1.00432
				1.00546
				1.00518
				1.00609
				1.00591
				1.00659
				1.00652
				1.00697
				1.007
				1.00723
				1.00734
				1.00736
				1.00754
				1.00736
				1.00761
				1.00723
				1.00754
				1.00697
				1.00734
				1.00659
				1.007
				1.00609
				1.00652
				1.00546
				1.00591
				1.00472
				1.00518
				1.00388
				1.00432
				1.00296
				1.00337
				1.00197
				1.00233
				1.00095
				1.00124
				0.999929
				1.00013
				0.998949
				0.999036
				0.99805
				0.99801
				0.997269
				0.997094
				0.99664
				0.996326
				0.996183
				0.995736
				0.995908
				0.995343
				0.995812
				0.99515
				0.995878
				0.995143
				0.996081
				0.995299
				0.996387
				0.995582
				0.996756
				0.995948
				0.997141
				0.996344
				0.997483
				0.996708
				0.997693
				0.996957
				0.997617
				0.99696
				0.996978
				0.996504
				0.995379
				0.995244
				0.992607
				0.992823
				0.98926
				0.989381
				0.986881
				0.986102
				0.987086
				0.988377
				0.989554
				0.989625
				0.99294
				0.992525
				0.995651
				0.995418
				0.997184
				0.997291
				0.997836
				0.998154
				0.998006
				0.998411
				0.997942
				0.998379
				0.997771
				0.998223
				0.997565
				0.998025
				0.997368
				0.997828
				0.997216
				0.997666
				0.997137
				0.997562
				0.997153
				0.997538
				0.99728
				0.997612
				0.99753
				0.997793
				0.997901
				0.998087
				0.998386
				0.998489
				0.998968
				0.998988
				0.999625
				0.999566
				1.00033
				1.0002
				1.00105
				1.00086
				1.00177
				1.00153
				1.00246
				1.00219
				1.0031
				1.00281
				1.00367
				1.00337
				1.00418
				1.00388
				1.0046
				1.00431
				1.00495
				1.00467
				1.0052
				1.00495
				1.00538
				1.00515
				1.00546
				1.00527
				1.00546
				1.00531
				1.00538
				1.00527
				1.0052
				1.00515
				1.00495
				1.00495
				1.0046
				1.00467
				1.00418
				1.00431
				1.00367
				1.00388
				1.0031
				1.00337
				1.00246
				1.00281
				1.00177
				1.00219
				1.00105
				1.00153
				1.00033
				1.00086
				0.999625
				1.0002
				0.998968
				0.999566
				0.998386
				0.998988
				0.997901
				0.998489
				0.99753
				0.998087
				0.99728
				0.997793
				0.997153
				0.997612
				0.997137
				0.997538
				0.997216
				0.997562
				0.997368
				0.997666
				0.997565
				0.997828
				0.997771
				0.998025
				0.997942
				0.998223
				0.998006
				0.998379
				0.997836
				0.998411
				0.997184
				0.998154
				0.995651
				0.997291
				0.99294
				0.995418
				0.989554
				0.992525
				0.987086
				0.989625
				0.990505
				0.988751
				0.992576
				0.990028
				0.995311
				0.992946
				0.997364
				0.995763
				0.998417
				0.997523
				0.998806
				0.998331
				0.998887
				0.998613
				0.998847
				0.998659
				0.998766
				0.998607
				0.998682
				0.998521
				0.998615
				0.998434
				0.998582
				0.998371
				0.998595
				0.998348
				0.998665
				0.998381
				0.998799
				0.99848
				0.999001
				0.998652
				0.99927
				0.998899
				0.9996
				0.999216
				0.99998
				0.999595
				1.0004
				1.00002
				1.00084
				1.00048
				1.00128
				1.00096
				1.00172
				1.00144
				1.00214
				1.0019
				1.00252
				1.00233
				1.00287
				1.00272
				1.00317
				1.00307
				1.00342
				1.00336
				1.00363
				1.00361
				1.00378
				1.0038
				1.00388
				1.00393
				1.00393
				1.00401
				1.00393
				1.00404
				1.00388
				1.00401
				1.00378
				1.00393
				1.00363
				1.0038
				1.00342
				1.00361
				1.00317
				1.00336
				1.00287
				1.00307
				1.00252
				1.00272
				1.00214
				1.00233
				1.00172
				1.0019
				1.00128
				1.00144
				1.00084
				1.00096
				1.0004
				1.00048
				0.99998
				1.00002
				0.9996
				0.999595
				0.99927
				0.999216
				0.999001
				0.998899
				0.998799
				0.998652
				0.998665
				0.99848
				0.998595
				0.998381
				0.998582
				0.998348
				0.998615
				0.998371
				0.998682
				0.998434
				0.998766
				0.998521
				0.998847
				0.998607
				0.998887
				0.998659
				0.998806
				0.998613
				0.998417
				0.998331
				0.997364
				0.997523
				0.995311
				0.995762
				0.992576
				0.992946
				0.990505
				0.990028
				0.990944
				0.991878
				0.993016
				0.992897
				0.995684
				0.995172
				0.997613
				0.997268
				0.998575
				0.998489
				0.998946
				0.998998
				0.999063
				0.999161
				0.999086
				0.999196
				0.999075
				0.999191
				0.999061
				0.99918
				0.999057
				0.999177
				0.999076
				0.999193
				0.999127
				0.999235
				0.999216
				0.99931
				0.999348
				0.999422
				0.999525
				0.999575
				0.999744
				0.999768
				1
				0.999997
				1.00029
				1.00026
				1.0006
				1.00054
				1.00092
				1.00084
				1.00124
				1.00114
				1.00156
				1.00144
				1.00185
				1.00173
				1.00212
				1.00199
				1.00236
				1.00223
				1.00257
				1.00244
				1.00274
				1.00262
				1.00288
				1.00277
				1.00299
				1.00288
				1.00306
				1.00296
				1.00309
				1.00301
				1.00309
				1.00303
				1.00306
				1.00301
				1.00299
				1.00296
				1.00288
				1.00288
				1.00274
				1.00277
				1.00257
				1.00262
				1.00236
				1.00244
				1.00212
				1.00223
				1.00185
				1.00199
				1.00156
				1.00173
				1.00124
				1.00144
				1.00092
				1.00114
				1.0006
				1.00084
				1.00029
				1.00054
				1
				1.00026
				0.999744
				0.999997
				0.999525
				0.999768
				0.999348
				0.999575
				0.999216
				0.999422
				0.999127
				0.99931
				0.999076
				0.999235
				0.999057
				0.999193
				0.999061
				0.999177
				0.999075
				0.99918
				0.999086
				0.999191
				0.999063
				0.999196
				0.998946
				0.999161
				0.998575
				0.998998
				0.997613
				0.998489
				0.995684
				0.997268
				0.993016
				0.995172
				0.990944
				0.992897
				0.993516
				0.992265
				0.995084
				0.99328
				0.997042
				0.995506
				0.998394
				0.997495
				0.999033
				0.998616
				0.999276
				0.999086
				0.99937
				0.999265
				0.999421
				0.999341
				0.999462
				0.999384
				0.999505
				0.99942
				0.999558
				0.99946
				0.999624
				0.999511
				0.999709
				0.999579
				0.999814
				0.999669
				0.999941
				0.999782
				1.00009
				0.999922
				1.00026
				1.00009
				1.00045
				1.00027
				1.00066
				1.00048
				1.00087
				1.0007
				1.00108
				1.00092
				1.00129
				1.00115
				1.00149
				1.00136
				1.00167
				1.00157
				1.00184
				1.00176
				1.00199
				1.00193
				1.00212
				1.00208
				1.00223
				1.0022
				1.00231
				1.0023
				1.00237
				1.00238
				1.00242
				1.00244
				1.00244
				1.00247
				1.00244
				1.00248
				1.00242
				1.00247
				1.00237
				1.00244
				1.00231
				1.00238
				1.00223
				1.0023
				1.00212
				1.0022
				1.00199
				1.00208
				1.00184
				1.00193
				1.00167
				1.00176
				1.00149
				1.00157
				1.00129
				1.00136
				1.00108
				1.00115
				1.00087
				1.00092
				1.00066
				1.0007
				1.00045
				1.00048
				1.00026
				1.00027
				1.00009
				1.00009
				0.999941
				0.999922
				0.999814
				0.999782
				0.999709
				0.999669
				0.999624
				0.999579
				0.999558
				0.999511
				0.999505
				0.99946
				0.999462
				0.99942
				0.999421
				0.999384
				0.99937
				0.999341
				0.999276
				0.999265
				0.999033
				0.999086
				0.998394
				0.998616
				0.997042
				0.997495
				0.995084
				0.995506
				0.993516
				0.99328
				0.993753
				0.994312
				0.995287
				0.995064
				0.997167
				0.996688
				0.998439
				0.998107
				0.999045
				0.998897
				0.999305
				0.999247
				0.999441
				0.999413
				0.999537
				0.999522
				0.999619
				0.999613
				0.999698
				0.999699
				0.999778
				0.999786
				0.999865
				0.999876
				0.999962
				0.999972
				1.00007
				1.00008
				1.00019
				1.0002
				1.00033
				1.00032
				1.00047
				1.00046
				1.00063
				1.00061
				1.00079
				1.00076
				1.00096
				1.00092
				1.00112
				1.00108
				1.00128
				1.00123
				1.00142
				1.00137
				1.00156
				1.0015
				1.00168
				1.00162
				1.00178
				1.00173
				1.00187
				1.00182
				1.00195
				1.00189
				1.002
				1.00196
				1.00205
				1.002
				1.00207
				1.00204
				1.00209
				1.00206
				1.00209
				1.00206
				1.00207
				1.00206
				1.00205
				1.00204
				1.002
				1.002
				1.00195
				1.00196
				1.00187
				1.00189
				1.00178
				1.00182
				1.00168
				1.00173
				1.00156
				1.00162
				1.00142
				1.0015
				1.00128
				1.00137
				1.00112
				1.00123
				1.00096
				1.00108
				1.00079
				1.00092
				1.00063
				1.00076
				1.00047
				1.00061
				1.00033
				1.00046
				1.00019
				1.00032
				1.00007
				1.0002
				0.999962
				1.00008
				0.999865
				0.999972
				0.999778
				0.999876
				0.999698
				0.999786
				0.999619
				0.999699
				0.999537
				0.999613
				0.999441
				0.999522
				0.999305
				0.999413
				0.999045
				0.999247
				0.998439
				0.998897
				0.997167
				0.998107
				0.995287
				0.996688
				0.993753
				0.995064
				0.994923
				0.994132
				0.996039
				0.994869
				0.997441
				0.996469
				0.998465
				0.997899
				0.999047
				0.998758
				0.999374
				0.999205
				0.999589
				0.999462
				0.999751
				0.99964
				0.999884
				0.999779
				1
				0.999897
				1.00011
				1
				1.00021
				1.00011
				1.00032
				1.00021
				1.00043
				1.00032
				1.00055
				1.00043
				1.00067
				1.00055
				1.00079
				1.00067
				1.00091
				1.0008
				1.00103
				1.00093
				1.00115
				1.00105
				1.00126
				1.00117
				1.00136
				1.00129
				1.00145
				1.00139
				1.00153
				1.00148
				1.0016
				1.00156
				1.00166
				1.00163
				1.00171
				1.00169
				1.00175
				1.00174
				1.00178
				1.00178
				1.00181
				1.00181
				1.00182
				1.00183
				1.00183
				1.00184
				1.00183
				1.00184
				1.00182
				1.00184
				1.00181
				1.00183
				1.00178
				1.00181
				1.00175
				1.00178
				1.00171
				1.00174
				1.00166
				1.00169
				1.0016
				1.00163
				1.00153
				1.00156
				1.00145
				1.00148
				1.00136
				1.00139
				1.00126
				1.00129
				1.00115
				1.00117
				1.00103
				1.00105
				1.00091
				1.00093
				1.00079
				1.0008
				1.00067
				1.00067
				1.00055
				1.00055
				1.00043
				1.00043
				1.00032
				1.00032
				1.00021
				1.00021
				1.00011
				1.00011
				1
				1
				0.999884
				0.999897
				0.999751
				0.999779
				0.999589
				0.99964
				0.999374
				0.999462
				0.999047
				0.999205
				0.998465
				0.998758
				0.997441
				0.997899
				0.996039
				0.996469
				0.994923
				0.994869
			</DataArray>
			<DataArray type="Float64" Name="mach-number" Format="ascii">
				0.0141334
				0.0212548
				0.0385932
				0.0337531
				0.0675579
				0.0587636
				0.101392
				0.0898368
				0.140207
				0.126159
				0.183598
				0.167249
				0.2309
				0.212456
				0.281297
				0.260978
				0.333833
				0.311876
				0.387388
				0.364079
				0.44064
				0.416336
				0.49204
				0.467208
				0.539752
				0.515042
				0.581689
				0.557961
				0.61554
				0.59395
				0.639116
				0.620967
				0.650728
				0.637353
				0.649767
				0.642145
				0.636803
				0.635426
				0.613434
				0.618176
				0.581639
				0.592001
				0.543365
				0.558609
				0.500259
				0.519599
				0.453601
				0.476297
				0.404365
				0.429757
				0.353252
				0.380815
				0.300786
				0.330114
				0.247359
				0.2782
				0.193278
				0.225583
				0.138821
				0.172869
				0.08438
				0.121193
				0.0319019
				0.0741303
				0.031902
				0.0491864
				0.08438
				0.0741303
				0.13882
				0.121193
				0.193278
				0.172869
				0.24736
				0.225583
				0.300786
				0.278201
				0.353252
				0.330114
				0.404365
				0.380815
				0.453601
				0.429757
				0.500259
				0.476297
				0.543365
				0.519599
				0.58164
				0.558609
				0.613434
				0.592001
				0.636802
				0.618176
				0.649767
				0.635426
				0.650728
				0.642145
				0.639116
				0.637353
				0.61554
				0.620967
				0.581689
				0.59395
				0.539752
				0.557961
				0.49204
				0.515042
				0.44064
				0.467208
				0.387387
				0.416336
				0.333833
				0.364079
				0.281297
				0.311876
				0.2309
				0.260978
				0.183597
				0.212456
				0.140206
				0.167249
				0.101392
				0.126159
				0.0675579
				0.0898368
				0.0385932
				0.0587636
				0.0141333
				0.033753
				0.0535312
				0.0354232
				0.0706365
				0.0458736
				0.0982475
				0.0700344
				0.132297
				0.101524
				0.170982
				0.138364
				0.213223
				0.179557
				0.258085
				0.22422
				0.304604
				0.271424
				0.351764
				0.320161
				0.398489
				0.369354
				0.443632
				0.41784
				0.48595
				0.464361
				0.524079
				0.507519
				0.556547
				0.545764
				0.581832
				0.577402
				0.59856
				0.600724
				0.605762
				0.614281
				0.603145
				0.617246
				0.591161
				0.609673
				0.570867
				0.592468
				0.543612
				0.567071
				0.510775
				0.535073
				0.473605
				0.497951
				0.433169
				0.456949
				0.390366
				0.413071
				0.345974
				0.367122
				0.300731
				0.319768
				0.255453
				0.271624
				0.211243
				0.223373
				0.169949
				0.176009
				0.135156
				0.131516
				0.113685
				0.0949783
				0.113685
				0.0790683
				0.135156
				0.0949784
				0.169949
				0.131516
				0.211243
				0.176009
				0.255453
				0.223373
				0.300731
				0.271625
				0.345973
				0.319768
				0.390366
				0.367122
				0.433169
				0.413071
				0.473605
				0.456949
				0.510775
				0.497951
				0.543612
				0.535073
				0.570867
				0.567071
				0.591161
				0.592468
				0.603144
				0.609673
				0.605762
				0.617245
				0.59856
				0.61428
				0.581832
				0.600723
				0.556547
				0.577402
				0.524079
				0.545764
				0.48595
				0.507519
				0.443632
				0.464361
				0.398489
				0.41784
				0.351764
				0.369353
				0.304604
				0.320161
				0.258085
				0.271423
				0.213223
				0.22422
				0.170982
				0.179557
				0.132297
				0.138364
				0.0982474
				0.101524
				0.0706364
				0.0700343
				0.0535311
				0.0458735
				0.0707727
				0.0851074
				0.0877102
				0.0939879
				0.115879
				0.117223
				0.15065
				0.149083
				0.189456
				0.185677
				0.230777
				0.224875
				0.273489
				0.265417
				0.316603
				0.306353
				0.359201
				0.346852
				0.400419
				0.386155
				0.439414
				0.423536
				0.475301
				0.458251
				0.507102
				0.489475
				0.533716
				0.516278
				0.553967
				0.537635
				0.566758
				0.552529
				0.571303
				0.560125
				0.56736
				0.559974
				0.555312
				0.552149
				0.536053
				0.537231
				0.510756
				0.516161
				0.480645
				0.490033
				0.446854
				0.459947
				0.410382
				0.42692
				0.372096
				0.391872
				0.332792
				0.355651
				0.293271
				0.319098
				0.254462