<VTKFile type="UnstructuredGrid" version="0.1" byte_order="LittleEndian">
<UnstructuredGrid>
	<Piece NumberOfPoints="1088" NumberOfCells="2048">
		<CellData Scalars="density" Vectors="velocity">
			<DataArray type="Float64" Name="density" Format="ascii">
				0.947916
				0.948471
				0.947217
				0.948185
				0.94561
				0.947222
				0.942757
				0.945311
				0.938315
				0.942116
				0.932015
				0.937345
				0.923713
				0.93081
				0.913401
				0.922451
				0.90123
				0.912348
				0.887552
				0.900746
				0.872926
				0.88808
				0.858144
				0.87499
				0.844222
				0.862318
				0.832342
				0.851076
				0.823813
				0.842395
				0.819825
				0.837387
				0.821305
				0.836973
				0.828592
				0.841677
				0.841441
				0.8515
				0.859009
				0.86593
				0.880197
				0.884093
				0.903782
				0.904957
				0.92861
				0.927464
				0.95365
				0.950631
				0.977991
				0.973579
				1.00088
				0.99554
				1.02165
				1.01586
				1.03977
				1.03397
				1.05479
				1.04941
				1.06636
				1.06181
				1.07422
				1.07087
				1.07819
				1.07639
				1.07819
				1.07824
				1.07422
				1.07639
				1.06636
				1.07087
				1.05479
				1.06181
				1.03977
				1.04941
				1.02165
				1.03397
				1.00088
				1.01586
				0.977991
				0.99554
				0.95365
				0.973579
				0.92861
				0.950631
				0.903782
				0.927464
				0.880197
				0.904957
				0.859009
				0.884093
				0.841441
				0.86593
				0.828592
				0.851501
				0.821305
				0.841677
				0.819825
				0.836973
				0.823813
				0.837387
				0.832342
				0.842395
				0.844222
				0.851076
				0.858144
				0.862318
				0.872926
				0.87499
				0.887552
				0.88808
				0.90123
				0.900746
				0.913401
				0.912348
				0.923713
				0.922451
				0.932015
				0.93081
				0.938315
				0.937345
				0.942758
				0.942116
				0.94561
				0.945311
				0.947217
				0.947222
				0.947916
				0.948185
				0.953554
				0.952861
				0.953418
				0.952744
				0.952923
				0.952269
				0.95171
				0.951119
				0.949426
				0.94892
				0.945809
				0.945355
				0.940719
				0.940226
				0.934131
				0.933447
				0.926154
				0.925057
				0.917046
				0.915237
				0.90724
				0.904342
				0.897345
				0.892912
				0.888136
				0.88169
				0.880508
				0.871591
				0.875397
				0.863658
				0.873643
				0.858945
				0.87583
				0.858339
				0.882153
				0.862356
				0.892378
				0.871015
				0.905921
				0.883831
				0.92199
				0.899985
				0.939726
				0.9185
				0.958299
				0.938395
				0.976957
				0.958775
				0.995044
				0.978855
				1.012
				0.997973
				1.02735
				1.01557
				1.04071
				1.03119
				1.05177
				1.04445
				1.06027
				1.05507
				1.06604
				1.06281
				1.06895
				1.06751
				1.06895
				1.06909
				1.06604
				1.06751
				1.06027
				1.06281
				1.05177
				1.05507
				1.04071
				1.04445
				1.02735
				1.03119
				1.012
				1.01557
				0.995044
				0.997973
				0.976957
				0.978855
				0.958299
				0.958775
				0.939726
				0.938395
				0.92199
				0.9185
				0.905922
				0.899986
				0.892378
				0.883831
				0.882153
				0.871015
				0.87583
				0.862356
				0.873643
				0.858339
				0.875397
				0.858945
				0.880508
				0.863659
				0.888136
				0.871591
				0.897345
				0.88169
				0.90724
				0.892912
				0.917046
				0.904342
				0.926154
				0.915237
				0.934131
				0.925057
				0.940719
				0.933447
				0.945809
				0.940226
				0.949426
				0.945355
				0.95171
				0.94892
				0.952923
				0.951119
				0.953418
				0.952269
				0.953554
				0.952744
				0.958219
				0.959205
				0.958357
				0.959377
				0.958366
				0.959752
				0.95784
				0.959962
				0.956399
				0.959573
				0.953781
				0.958227
				0.949847
				0.955698
				0.94457
				0.951893
				0.938039
				0.946837
				0.930475
				0.940691
				0.922251
				0.933754
				0.913893
				0.92647
				0.906072
				0.919414
				0.899567
				0.913265
				0.895198
				0.908743
				0.893705
				0.906533
				0.895606
				0.907169
				0.901077
				0.91093
				0.909911
				0.917778
				0.921587
				0.927384
				0.935398
				0.939203
				0.950577
				0.952587
				0.966394
				0.966874
				0.982196
				0.981445
				0.997425
				0.995754
				1.01162
				1.00933
				1.0244
				1.0218
				1.03547
				1.03283
				1.04459
				1.04217
				1.05158
				1.04963
				1.05631
				1.05506
				1.05869
				1.05836
				1.05869
				1.05946
				1.05631
				1.05836
				1.05158
				1.05506
				1.04459
				1.04963
				1.03547
				1.04217
				1.0244
				1.03283
				1.01162
				1.0218
				0.997425
				1.00933
				0.982196
				0.995754
				0.966394
				0.981445
				0.950577
				0.966874
				0.935397
				0.952587
				0.921587
				0.939203
				0.909911
				0.927384
				0.901077
				0.917778
				0.895606
				0.91093
				0.893705
				0.907169
				0.895198
				0.906533
				0.899567
				0.908743
				0.906072
				0.913265
				0.913893
				0.919414
				0.922251
				0.92647
				0.930475
				0.933754
				0.938039
				0.940691
				0.94457
				0.946837
				0.949847
				0.951892
				0.953781
				0.955698
				0.956399
				0.958227
				0.95784
				0.959573
				0.958366
				0.959962
				0.958357
				0.959752
				0.958219
				0.959377
				0.964677
				0.963253
				0.965411
				0.963542
				0.966531
				0.964234
				0.967506
				0.964897
				0.967838
				0.965052
				0.9672
				0.964339
				0.965444
				0.962565
				0.962569
				0.95967
				0.958695
				0.955703
				0.954055
				0.950822
				0.948983
				0.945291
				0.943903
				0.939485
				0.939304
				0.933879
				0.935708
				0.929027
				0.933624
				0.925516
				0.933479
				0.923901
				0.935544
				0.924612
				0.939888
				0.92787
				0.946362
				0.93364
				0.954636
				0.94164
				0.964266
				0.951417
				0.974762
				0.962426
				0.985646
				0.974115
				0.996483
				0.98597
				1.0069
				0.997544
				1.01658
				1.00846
				1.02527
				1.01843
				1.03278
				1.0272
				1.03894
				1.03459
				1.04366
				1.04047
				1.04685
				1.04473
				1.04845
				1.04732
				1.04845
				1.04818
				1.04685
				1.04732
				1.04366
				1.04473
				1.03894
				1.04047
				1.03278
				1.03459
				1.02527
				1.0272
				1.01658
				1.01843
				1.0069
				1.00846
				0.996483
				0.997544
				0.985646
				0.98597
				0.974762
				0.974115
				0.964265
				0.962426
				0.954636
				0.951417
				0.946362
				0.94164
				0.939888
				0.93364
				0.935544
				0.92787
				0.933479
				0.924612
				0.933624
				0.923901
				0.935708
				0.925516
				0.939304
				0.929027
				0.943903
				0.933879
				0.948983
				0.939485
				0.954055
				0.945291
				0.958695
				0.950822
				0.962569
				0.955704
				0.965444
				0.95967
				0.9672
				0.962565
				0.967838
				0.964339
				0.967506
				0.965052
				0.966531
				0.964897
				0.965411
				0.964234
				0.964677
				0.963542
				0.967575
				0.969032
				0.968509
				0.969635
				0.969961
				0.971198
				0.971325
				0.973111
				0.972083
				0.974694
				0.971942
				0.975461
				0.970812
				0.975197
				0.968738
				0.973895
				0.965855
				0.971679
				0.962374
				0.968758
				0.958574
				0.965404
				0.954792
				0.961931
				0.951412
				0.958689
				0.948836
				0.95604
				0.947454
				0.954341
				0.947585
				0.953903
				0.949431
				0.954949
				0.953031
				0.957579
				0.958262
				0.961749
				0.964861
				0.967282
				0.972476
				0.973902
				0.980721
				0.981275
				0.98922
				0.989055
				0.997633
				0.996917
				1.00567
				1.00457
				1.0131
				1.01177
				1.01973
				1.01833
				1.02543
				1.02409
				1.0301
				1.02893
				1.03365
				1.03277
				1.03604
				1.03555
				1.03724
				1.03724
				1.03724
				1.0378
				1.03604
				1.03724
				1.03365
				1.03555
				1.0301
				1.03277
				1.02543
				1.02893
				1.01973
				1.02409
				1.0131
				1.01833
				1.00567
				1.01177
				0.997633
				1.00457
				0.98922
				0.996917
				0.980721
				0.989055
				0.972476
				0.981275
				0.964861
				0.973902
				0.958262
				0.967282
				0.953031
				0.961749
				0.949431
				0.957579
				0.947585
				0.954949
				0.947454
				0.953903
				0.948836
				0.954341
				0.951412
				0.95604
				0.954792
				0.958689
				0.958574
				0.961931
				0.962374
				0.965404
				0.965855
				0.968758
				0.968738
				0.971679
				0.970812
				0.973895
				0.971942
				0.975197
				0.972083
				0.975461
				0.971325
				0.974694
				0.969961
				0.973111
				0.968509
				0.971198
				0.967575
				0.969635
				0.972644
				0.970683
				0.974163
				0.971386
				0.976606
				0.973205
				0.979107
				0.975438
				0.980957
				0.977351
				0.981813
				0.978476
				0.981652
				0.978659
				0.980619
				0.977946
				0.978931
				0.976482
				0.976829
				0.974461
				0.974559
				0.972109
				0.972373
				0.969678
				0.970523
				0.967433
				0.96925
				0.965651
				0.968772
				0.964595
				0.969255
				0.964489
				0.970791
				0.96549
				0.973386
				0.967662
				0.976956
				0.97096
				0.981338
				0.975248
				0.986324
				0.980314
				0.991677
				0.985906
				0.997168
				0.991766
				1.00259
				0.997651
				1.00775
				1.00335
				1.01251
				1.00867
				1.01675
				1.0135
				1.02038
				1.01771
				1.02335
				1.02124
				1.02561
				1.02403
				1.02713
				1.02604
				1.02789
				1.02725
				1.02789
				1.02766
				1.02713
				1.02725
				1.02561
				1.02604
				1.02335
				1.02403
				1.02038
				1.02124
				1.01675
				1.01771
				1.01251
				1.0135
				1.00775
				1.00867
				1.00259
				1.00335
				0.997168
				0.997651
				0.991677
				0.991766
				0.986324
				0.985906
				0.981338
				0.980314
				0.976956
				0.975248
				0.973386
				0.97096
				0.970791
				0.967662
				0.969255
				0.96549
				0.968772
				0.964489
				0.96925
				0.964595
				0.970523
				0.965651
				0.972373
				0.967433
				0.974559
				0.969678
				0.976829
				0.972109
				0.978931
				0.974461
				0.980619
				0.976482
				0.981652
				0.977946
				0.981813
				0.978659
				0.980957
				0.978476
				0.979107
				0.977351
				0.976606
				0.975438
				0.974163
				0.973205
				0.972644
				0.971386
				0.9735
				0.975098
				0.975187
				0.976067
				0.977884
				0.97857
				0.980646
				0.981641
				0.982756
				0.984308
				0.983924
				0.986025
				0.984181
				0.986705
				0.983696
				0.986513
				0.982672
				0.985688
				0.981313
				0.984462
				0.97982
				0.983046
				0.978386
				0.981629
				0.977203
				0.980388
				0.976448
				0.979489
				0.976275
				0.979079
				0.9768
				0.979275
				0.97808
				0.980152
				0.980111
				0.981732
				0.982825
				0.983979
				0.986101
				0.986804
				0.989784
				0.990081
				0.993705
				0.993657
				0.997698
				0.997379
				1.00161
				1.0011
				1.00532
				1.00469
				1.00872
				1.00803
				1.01173
				1.01106
				1.0143
				1.01369
				1.01639
				1.01589
				1.01797
				1.01763
				1.01903
				1.01888
				1.01957
				1.01964
				1.01957
				1.01989
				1.01903
				1.01964
				1.01797
				1.01888
				1.01639
				1.01763
				1.0143
				1.01589
				1.01173
				1.01369
				1.00872
				1.01106
				1.00532
				1.00803
				1.00161
				1.00469
				0.997697
				1.0011
				0.993705
				0.997379
				0.989784
				0.993657
				0.986101
				0.990081
				0.982825
				0.986804
				0.980111
				0.983979
				0.97808
				0.981732
				0.9768
				0.980153
				0.976275
				0.979275
				0.976448
				0.979079
				0.977203
				0.979489
				0.978386
				0.980388
				0.97982
				0.981629
				0.981313
				0.983046
				0.982672
				0.984462
				0.983696
				0.985688
				0.984181
				0.986513
				0.983924
				0.986705
				0.982756
				0.986025
				0.980646
				0.984308
				0.977884
				0.981641
				0.975187
				0.97857
				0.9735
				0.976067
				0.977712
				0.97562
				0.979762
				0.976658
				0.98298
				0.979326
				0.986181
				0.982574
				0.988545
				0.985401
				0.989847
				0.987301
				0.990247
				0.988244
				0.990012
				0.988418
				0.989384
				0.988053
				0.988554
				0.987352
				0.987675
				0.986487
				0.986877
				0.985608
				0.986275
				0.984853
				0.985967
				0.984342
				0.986034
				0.984182
				0.986533
				0.984452
				0.987487
				0.985201
				0.988883
				0.986436
				0.990675
				0.988128
				0.992789
				0.99021
				0.995131
				0.992589
				0.9976
				0.995158
				1.0001
				0.997808
				1.00253
				1.00044
				1.00483
				1.00296
				1.00693
				1.00529
				1.00879
				1.00739
				1.01037
				1.00921
				1.01166
				1.01072
				1.01263
				1.01191
				1.01328
				1.01277
				1.01361
				1.01328
				1.01361
				1.01345
				1.01328
				1.01328
				1.01263
				1.01277
				1.01166
				1.01191
				1.01037
				1.01072
				1.00879
				1.00921
				1.00693
				1.00739
				1.00483
				1.00529
				1.00253
				1.00296
				1.0001
				1.00044
				0.9976
				0.997808
				0.995131
				0.995158
				0.992789
				0.992589
				0.990675
				0.99021
				0.988883
				0.988128
				0.987487
				0.986436
				0.986533
				0.985201
				0.986034
				0.984452
				0.985966
				0.984182
				0.986275
				0.984342
				0.986877
				0.984853
				0.987675
				0.985608
				0.988554
				0.986487
				0.989384
				0.987352
				0.990012
				0.988053
				0.990247
				0.988418
				0.989847
				0.988244
				0.988545
				0.987301
				0.986181
				0.985401
				0.98298
				0.982574
				0.979762
				0.979326
				0.977712
				0.976658
				0.978293
				0.979733
				0.980415
				0.98088
				0.983716
				0.983776
				0.986975
				0.987175
				0.989398
				0.989977
				0.990819
				0.991735
				0.991427
				0.992548
				0.991483
				0.992705
				0.991202
				0.992471
				0.990745
				0.992031
				0.990237
				0.991518
				0.989779
				0.991031
				0.989455
				0.99065
				0.989337
				0.990444
				0.989482
				0.990466
				0.989924
				0.990758
				0.990677
				0.991338
				0.991727
				0.992205
				0.993039
				0.993336
				0.994559
				0.994687
				0.996221
				0.996203
				0.997956
				0.99782
				0.999697
				0.999473
				1.00138
				1.0011
				1.00296
				1.00265
				1.0044
				1.00409
				1.00566
				1.00537
				1.00673
				1.00649
				1.00759
				1.00741
				1.00825
				1.00813
				1.00868
				1.00865
				1.0089
				1.00896
				1.0089
				1.00907
				1.00868
				1.00896
				1.00825
				1.00865
				1.00759
				1.00813
				1.00673
				1.00741
				1.00566
				1.00649
				1.0044
				1.00537
				1.00296
				1.00409
				1.00138
				1.00265
				0.999697
				1.0011
				0.997956
				0.999473
				0.996221
				0.99782
				0.994559
				0.996203
				0.993039
				0.994687
				0.991727
				0.993336
				0.990677
				0.992205
				0.989924
				0.991338
				0.989482
				0.990758
				0.989337
				0.990466
				0.989455
				0.990444
				0.989779
				0.99065
				0.990237
				0.991031
				0.990745
				0.991518
				0.991202
				0.992031
				0.991483
				0.992471
				0.991427
				0.992705
				0.990819
				0.992548
				0.989398
				0.991735
				0.986975
				0.989977
				0.983716
				0.987176
				0.980415
				0.983776
				0.978293
				0.98088
				0.982395
				0.980497
				0.984533
				0.981654
				0.987757
				0.984552
				0.990771
				0.98792
				0.992847
				0.990676
				0.99395
				0.992431
				0.994365
				0.993322
				0.99438
				0.993637
				0.99419
				0.993614
				0.993917
				0.993414
				0.99364
				0.993146
				0.993418
				0.992888
				0.993297
				0.992699
				0.993314
				0.99263
				0.993496
				0.992719
				0.993858
				0.99299
				0.994403
				0.993455
				0.99512
				0.99411
				0.995984
				0.994938
				0.996962
				0.995907
				0.998015
				0.996978
				0.999102
				0.998107
				1.00018
				0.99925
				1.00122
				1.00037
				1.00219
				1.00143
				1.00307
				1.0024
				1.00384
				1.00326
				1.00449
				1.00401
				1.00501
				1.00462
				1.00541
				1.0051
				1.00567
				1.00545
				1.00581
				1.00566
				1.00581
				1.00573
				1.00567
				1.00566
				1.00541
				1.00545
				1.00501
				1.0051
				1.00449
				1.00462
				1.00384
				1.00401
				1.00307
				1.00326
				1.00219
				1.0024
				1.00122
				1.00143
				1.00018
				1.00037
				0.999102
				0.99925
				0.998015
				0.998107
				0.996962
				0.996978
				0.995984
				0.995907
				0.99512
				0.994938
				0.994403
				0.99411
				0.993858
				0.993455
				0.993496
				0.99299
				0.993314
				0.992719
				0.993297
				0.99263
				0.993418
				0.992699
				0.99364
				0.992888
				0.993917
				0.993146
				0.99419
				0.993414
				0.99438
				0.993614
				0.994365
				0.993637
				0.99395
				0.993322
				0.992847
				0.992431
				0.990771
				0.990676
				0.987757
				0.98792
				0.984533
				0.984552
				0.982395
				0.981654
				0.983338
				0.984488
				0.985434
				0.985581
				0.988564
				0.988259
				0.991456
				0.991233
				0.99344
				0.993502
				0.994524
				0.994815
				0.994998
				0.995403
				0.995127
				0.995574
				0.995082
				0.995537
				0.994963
				0.995415
				0.994833
				0.995273
				0.994738
				0.995157
				0.994709
				0.995099
				0.994774
				0.995123
				0.99495
				0.995248
				0.995246
				0.995484
				0.995663
				0.995835
				0.99619
				0.996296
				0.996811
				0.996853
				0.997502
				0.997487
				0.998236
				0.998174
				0.998986
				0.998888
				0.999726
				0.999604
				1.00043
				1.0003
				1.00109
				1.00095
				1.00168
				1.00155
				1.00219
				1.00208
				1.00263
				1.00253
				1.00298
				1.00291
				1.00324
				1.0032
				1.00341
				1.00341
				1.0035
				1.00354
				1.0035
				1.00358
				1.00341
				1.00354
				1.00324
				1.00341
				1.00298
				1.0032
				1.00263
				1.00291
				1.00219
				1.00253
				1.00168
				1.00208
				1.00109
				1.00155
				1.00043
				1.00095
				0.999726
				1.0003
				0.998986
				0.999604
				0.998236
				0.998888
				0.997502
				0.998174
				0.996811
				0.997487
				0.99619
				0.996853
				0.995663
				0.996296
				0.995246
				0.995835
				0.99495
				0.995484
				0.994774
				0.995248
				0.994709
				0.995123
				0.994738
				0.995099
				0.994833
				0.995157
				0.994963
				0.995273
				0.995082
				0.995415
				0.995127
				0.995537
				0.994998
				0.995574
				0.994524
				0.995403
				0.99344
				0.994815
				0.991456
				0.993502
				0.988564
				0.991233
				0.985434
				0.988259
				0.983338
				0.985581
				0.987066
				0.985537
				0.988909
				0.986588
				0.991572
				0.989147
				0.993896
				0.991956
				0.995363
				0.994075
				0.996081
				0.995304
				0.996352
				0.995884
				0.996408
				0.996102
				0.996375
				0.996146
				0.996316
				0.996115
				0.996266
				0.996064
				0.996248
				0.996027
				0.996279
				0.996027
				0.996372
				0.996082
				0.996533
				0.996204
				0.996766
				0.996398
				0.997069
				0.996668
				0.997433
				0.997009
				0.997849
				0.997411
				0.998302
				0.997861
				0.998775
				0.998342
				0.999252
				0.998837
				0.999717
				0.999329
				1.00016
				0.999804
				1.00057
				1.00025
				1.00093
				1.00065
				1.00125
				1.00101
				1.00152
				1.00131
				1.00173
				1.00157
				1.00189
				1.00176
				1.002
				1.0019
				1.00205
				1.00198
				1.00205
				1.00201
				1.002
				1.00198
				1.00189
				1.0019
				1.00173
				1.00176
				1.00152
				1.00157
				1.00125
				1.00131
				1.00093
				1.00101
				1.00057
				1.00065
				1.00016
				1.00025
				0.999717
				0.999804
				0.999252
				0.999329
				0.998775
				0.998837
				0.998302
				0.998342
				0.997849
				0.997861
				0.997433
				0.997411
				0.997069
				0.997009
				0.996766
				0.996668
				0.996533
				0.996398
				0.996372
				0.996204
				0.996279
				0.996082
				0.996248
				0.996027
				0.996266
				0.996027
				0.996316
				0.996064
				0.996375
				0.996115
				0.996408
				0.996146
				0.996352
				0.996102
				0.996081
				0.995884
				0.995363
				0.995304
				0.993896
				0.994075
				0.991572
				0.991956
				0.988909
				0.989147
				0.987066
				0.986588
				0.988116
				0.988962
				0.989853
				0.989845
				0.992341
				0.991949
				0.994485
				0.994162
				0.995828
				0.995726
				0.996494
				0.996554
				0.99677
				0.996901
				0.996864
				0.997014
				0.996883
				0.997034
				0.996878
				0.997023
				0.996875
				0.997011
				0.996892
				0.997016
				0.996939
				0.997048
				0.997026
				0.997118
				0.997158
				0.997231
				0.997335
				0.99739
				0.997558
				0.997593
				0.997821
				0.997836
				0.998117
				0.998113
				0.998436
				0.998416
				0.998768
				0.998734
				0.9991
				0.999056
				0.999422
				0.999373
				0.999728
				0.999675
				1.00001
				0.999956
				1.00026
				1.00021
				1.00048
				1.00043
				1.00066
				1.00062
				1.0008
				1.00078
				1.00091
				1.0009
				1.00099
				1.00099
				1.00102
				1.00104
				1.00102
				1.00106
				1.00099
				1.00104
				1.00091
				1.00099
				1.0008
				1.0009
				1.00066
				1.00078
				1.00048
				1.00062
				1.00026
				1.00043
				1.00001
				1.00021
				0.999728
				0.999956
				0.999422
				0.999675
				0.9991
				0.999373
				0.998768
				0.999056
				0.998436
				0.998734
				0.998117
				0.998416
				0.997821
				0.998113
				0.997558
				0.997836
				0.997335
				0.997593
				0.997158
				0.99739
				0.997026
				0.997231
				0.996939
				0.997118
				0.996892
				0.997048
				0.996875
				0.997016
				0.996878
				0.997011
				0.996883
				0.997023
				0.996864
				0.997034
				0.99677
				0.997014
				0.996494
				0.996901
				0.995828
				0.996554
				0.994485
				0.995726
				0.992341
				0.994162
				0.989853
				0.991949
				0.988116
				0.989845
				0.991112
				0.989988
				0.992493
				0.990809
				0.994415
				0.992757
				0.995993
				0.994785
				0.996913
				0.9962
				0.997326
				0.996946
				0.997479
				0.997268
				0.997527
				0.997392
				0.997542
				0.997436
				0.997551
				0.997455
				0.997568
				0.997471
				0.9976
				0.997497
				0.997654
				0.99754
				0.997733
				0.997606
				0.997843
				0.997697
				0.997985
				0.997815
				0.99815
				0.997958
				0.998338
				0.998129
				0.998546
				0.998326
				0.998766
				0.998543
				0.99899
				0.998771
				0.999212
				0.999003
				0.999424
				0.999229
				0.999621
				0.999445
				0.999801
				0.999644
				0.999959
				0.999824
				1.00009
				0.999981
				1.00021
				1.00011
				1.0003
				1.00022
				1.00036
				1.00031
				1.00041
				1.00037
				1.00043
				1.00041
				1.00043
				1.00042
				1.00041
				1.00041
				1.00036
				1.00037
				1.0003
				1.00031
				1.00021
				1.00022
				1.00009
				1.00011
				0.999959
				0.999981
				0.999801
				0.999824
				0.999621
				0.999644
				0.999424
				0.999445
				0.999212
				0.999229
				0.99899
				0.999003
				0.998766
				0.998771
				0.998546
				0.998543
				0.998338
				0.998326
				0.99815
				0.998129
				0.997985
				0.997958
				0.997843
				0.997815
				0.997733
				0.997697
				0.997654
				0.997606
				0.9976
				0.99754
				0.997568
				0.997497
				0.997551
				0.997471
				0.997542
				0.997455
				0.997527
				0.997436
				0.997479
				0.997392
				0.997326
				0.997268
				0.996913
				0.996946
				0.995993
				0.9962
				0.994415
				0.994785
				0.992493
				0.992757
				0.991112
				0.990809
				0.992093
				0.992694
				0.993359
				0.993324
				0.995105
				0.994791
				0.996518
				0.996266
				0.997326
				0.997237
				0.997681
				0.9977
				0.997811
				0.99787
				0.997855
				0.997919
				0.997873
				0.997931
				0.997889
				0.997937
				0.997915
				0.997952
				0.997956
				0.99798
				0.998015
				0.998026
				0.998093
				0.998092
				0.99819
				0.998179
				0.998299
				0.998291
				0.998403
				0.998441
				0.998544
				0.998587
				0.998706
				0.998743
				0.998879
				0.99891
				0.999052
				0.999077
				0.99922
				0.999239
				0.999378
				0.999391
				0.999522
				0.99953
				0.999651
				0.999655
				0.999764
				0.999764
				0.99986
				0.999857
				0.999939
				0.999934
				1
				0.999996
				1.00005
				1.00004
				1.00008
				1.00008
				1.00009
				1.0001
				1.00009
				1.0001
				1.00008
				1.0001
				1.00005
				1.00008
				1
				1.00004
				0.999939
				0.999996
				0.99986
				0.999934
				0.999764
				0.999857
				0.999651
				0.999764
				0.999522
				0.999655
				0.999378
				0.99953
				0.99922
				0.999391
				0.999052
				0.999239
				0.998879
				0.999077
				0.998706
				0.99891
				0.998544
				0.998743
				0.998403
				0.998587
				0.998299
				0.998441
				0.99819
				0.998291
				0.998093
				0.998179
				0.998015
				0.998092
				0.997956
				0.998026
				0.997915
				0.99798
				0.997889
				0.997952
				0.997873
				0.997937
				0.997855
				0.997931
				0.997811
				0.997919
				0.997681
				0.99787
				0.997326
				0.9977
				0.996518
				0.997237
				0.995105
				0.996266
				0.993359
				0.994791
				0.992093
				0.993324
				0.994688
				0.993871
				0.995599
				0.994433
				0.996815
				0.99573
				0.997729
				0.997001
				0.99817
				0.997793
				0.998286
				0.998123
				0.998261
				0.998198
				0.998198
				0.998176
				0.998137
				0.998133
				0.99809
				0.998095
				0.998065
				0.998073
				0.998064
				0.998072
				0.99809
				0.998096
				0.998145
				0.99815
				0.998233
				0.998237
				0.998356
				0.998365
				0.998951
				0.998551
				0.99916
				0.998862
				0.999322
				0.999062
				0.999453
				0.999226
				0.999561
				0.999365
				0.999653
				0.999484
				0.999729
				0.999587
				0.999793
				0.999675
				0.999846
				0.999751
				0.99989
				0.999815
				0.999925
				0.999868
				0.999953
				0.999912
				0.999974
				0.999946
				0.999989
				0.999972
				0.999998
				0.99999
				1
				1
				1
				1
				0.999998
				1
				0.999989
				0.99999
				0.999974
				0.999972
				0.999953
				0.999946
				0.999925
				0.999912
				0.99989
				0.999868
				0.999846
				0.999815
				0.999793
				0.999751
				0.999729
				0.999675
				0.999653
				0.999587
				0.999561
				0.999484
				0.999453
				0.999365
				0.999322
				0.999226
				0.99916
				0.999062
				0.998951
				0.998862
				0.998356
				0.998551
				0.998233
				0.998365
				0.998145
				0.998237
				0.99809
				0.99815
				0.998064
				0.998096
				0.998065
				0.998072
				0.99809
				0.998073
				0.998137
				0.998095
				0.998198
				0.998133
				0.998261
				0.998176
				0.998286
				0.998198
				0.99817
				0.998123
				0.997729
				0.997793
				0.996815
				0.997001
				0.995599
				0.99573
				0.994688
				0.994433
			</DataArray>
			<DataArray type="Float64" Name="mach-number" Format="ascii">
				0.0143483
				0.0235835
				0.0401835
				0.0361344
				0.0695287
				0.0613035
				0.102811
				0.0920309
				0.140283
				0.127337
				0.181719
				0.16682
				0.226603
				0.209953
				0.274245
				0.256053
				0.323805
				0.304289
				0.374273
				0.353691
				0.424427
				0.403097
				0.472802
				0.451151
				0.517655
				0.496275
				0.557009
				0.536683
				0.588725
				0.570483
				0.610817
				0.595808
				0.621804
				0.611181
				0.621157
				0.615771
				0.609365
				0.60965
				0.587797
				0.593662
				0.558178
				0.5692
				0.522248
				0.537778
				0.481514
				0.50085
				0.437178
				0.459653
				0.390171
				0.415192
				0.341181
				0.368281
				0.29073
				0.319559
				0.239214
				0.269579
				0.186945
				0.218863
				0.134197
				0.168044
				0.0813077
				0.118303
				0.0296987
				0.0732988
				0.0296987
				0.0498608
				0.0813077
				0.0732988
				0.134197
				0.118303
				0.186945
				0.168044
				0.239215
				0.218863
				0.29073
				0.26958
				0.341181
				0.319559
				0.390171
				0.368281
				0.437178
				0.415192
				0.481514
				0.459653
				0.522248
				0.50085
				0.558178
				0.537778
				0.587797
				0.5692
				0.609365
				0.593662
				0.621157
				0.60965
				0.621804
				0.615771
				0.610816
				0.611181
				0.588725
				0.595808
				0.557009
				0.570483
				0.517655
				0.536683
				0.472801
				0.496275
				0.424427
				0.451151
				0.374273
				0.403097
				0.323805
				0.35369
				0.274245
				0.304288
				0.226603
				0.256053
				0.181719
				0.209953
				0.140283
				0.16682
				0.102811
				0.127337
				0.0695287
				0.0920309
				0.0401835
				0.0613034
				0.0143482
				0.0361344
				0.0571171
				0.0366083
				0.0734105
				0.047074
				0.099885
				0.0710304
				0.132551
				0.101805
				0.169613
				0.137412
				0.210031
				0.176964
				0.25294
				0.219695
				0.297463
				0.264784
				0.342657
				0.311326
				0.387493
				0.358325
				0.430847
				0.404673
				0.471485
				0.449145
				0.508057
				0.49037
				0.539135
				0.526837
				0.563282
				0.556931
				0.579244
				0.579071
				0.586171
				0.591958
				0.583826
				0.594873
				0.572621
				0.587872
				0.553495
				0.571755
				0.527655
				0.547798
				0.496358
				0.517433
				0.460767
				0.48202
				0.421895
				0.442729
				0.380614
				0.40052
				0.337692
				0.356174
				0.293865
				0.310346
				0.249952
				0.26364
				0.207061
				0.216722
				0.167027
				0.170556
				0.133374
				0.127046
				0.112683
				0.0911208
				0.112683
				0.0753616
				0.133374
				0.0911208
				0.167027
				0.127046
				0.207061
				0.170556
				0.249953
				0.216722
				0.293865
				0.26364
				0.337692
				0.310346
				0.380614
				0.356174
				0.421895
				0.40052
				0.460767
				0.442729
				0.496358
				0.48202
				0.527655
				0.517432
				0.553495
				0.547798
				0.572621
				0.571755
				0.583826
				0.587872
				0.586171
				0.594872
				0.579244
				0.591958
				0.563282
				0.579071
				0.539135
				0.556931
				0.508057
				0.526837
				0.471484
				0.49037
				0.430846
				0.449145
				0.387493
				0.404673
				0.342657
				0.358325
				0.297463
				0.311326
				0.25294
				0.264784
				0.210031
				0.219695
				0.169613
				0.176965
				0.13255
				0.137412
				0.0998849
				0.101805
				0.0734104
				0.0710303
				0.0571171
				0.0470739
				0.0728885
				0.0895091
				0.0887297
				0.0975154
				0.115283
				0.118779
				0.148295
				0.148456
				0.185367
				0.183046
				0.225042
				0.22049
				0.266236
				0.259519
				0.307996
				0.299186
				0.349416
				0.338656
				0.389603
				0.377132
				0.427663
				0.413821
				0.462663
				0.44791
				0.4936
				0.478524
				0.519397
				0.504721
				0.538951
				0.525513
				0.551274
				0.539964
				0.555686
				0.547335
				0.551998