<VTKFile type="UnstructuredGrid" version="0.1" byte_order="LittleEndian">
<UnstructuredGrid>
	<Piece NumberOfPoints="1088" NumberOfCells="2048">
		<CellData Scalars="density" Vectors="velocity">
			<DataArray type="Float64" Name="density" Format="ascii">
				0.947917
				0.948471
				0.947218
				0.948185
				0.945611
				0.947223
				0.942758
				0.945312
				0.938315
				0.942116
				0.932015
				0.937345
				0.923713
				0.93081
				0.913402
				0.922451
				0.90123
				0.912348
				0.887552
				0.900746
				0.872927
				0.88808
				0.858144
				0.87499
				0.844223
				0.862318
				0.832342
				0.851077
				0.823814
				0.842395
				0.819826
				0.837387
				0.821306
				0.836973
				0.828592
				0.841678
				0.841442
				0.851501
				0.85901
				0.86593
				0.880198
				0.884094
				0.903783
				0.904957
				0.928611
				0.927464
				0.953651
				0.950632
				0.977992
				0.973579
				1.00088
				0.99554
				1.02165
				1.01586
				1.03977
				1.03397
				1.05479
				1.04941
				1.06636
				1.06181
				1.07422
				1.07087
				1.07819
				1.07639
				1.07819
				1.07824
				1.07422
				1.07639
				1.06636
				1.07087
				1.05479
				1.06181
				1.03977
				1.04941
				1.02165
				1.03397
				1.00088
				1.01586
				0.977992
				0.99554
				0.953651
				0.97358
				0.928611
				0.950632
				0.903783
				0.927464
				0.880198
				0.904957
				0.85901
				0.884094
				0.841442
				0.86593
				0.828593
				0.851501
				0.821306
				0.841678
				0.819826
				0.836973
				0.823814
				0.837387
				0.832342
				0.842395
				0.844223
				0.851077
				0.858144
				0.862318
				0.872927
				0.87499
				0.887552
				0.88808
				0.90123
				0.900746
				0.913402
				0.912348
				0.923713
				0.922452
				0.932015
				0.93081
				0.938315
				0.937345
				0.942758
				0.942117
				0.945611
				0.945312
				0.947218
				0.947223
				0.947917
				0.948185
				0.953554
				0.952862
				0.953419
				0.952745
				0.952923
				0.95227
				0.95171
				0.95112
				0.949426
				0.94892
				0.94581
				0.945356
				0.940719
				0.940226
				0.934132
				0.933447
				0.926154
				0.925057
				0.917047
				0.915237
				0.907241
				0.904342
				0.897346
				0.892913
				0.888136
				0.881691
				0.880509
				0.871591
				0.875397
				0.863659
				0.873644
				0.858945
				0.875831
				0.85834
				0.882154
				0.862357
				0.892379
				0.871015
				0.905922
				0.883832
				0.921991
				0.899986
				0.939727
				0.9185
				0.9583
				0.938395
				0.976957
				0.958775
				0.995045
				0.978856
				1.012
				0.997974
				1.02735
				1.01557
				1.04071
				1.03119
				1.05177
				1.04445
				1.06027
				1.05507
				1.06604
				1.06281
				1.06895
				1.06751
				1.06895
				1.06909
				1.06604
				1.06751
				1.06027
				1.06281
				1.05177
				1.05507
				1.04071
				1.04445
				1.02735
				1.03119
				1.012
				1.01557
				0.995045
				0.997974
				0.976957
				0.978856
				0.9583
				0.958775
				0.939727
				0.938395
				0.921991
				0.9185
				0.905922
				0.899986
				0.892379
				0.883832
				0.882154
				0.871015
				0.875831
				0.862357
				0.873644
				0.85834
				0.875397
				0.858945
				0.880509
				0.863659
				0.888136
				0.871591
				0.897346
				0.881691
				0.907241
				0.892913
				0.917047
				0.904342
				0.926154
				0.915238
				0.934132
				0.925057
				0.940719
				0.933447
				0.94581
				0.940226
				0.949426
				0.945356
				0.95171
				0.94892
				0.952923
				0.95112
				0.953419
				0.95227
				0.953554
				0.952745
				0.95822
				0.959205
				0.958358
				0.959378
				0.958367
				0.959752
				0.957841
				0.959963
				0.9564
				0.959574
				0.953781
				0.958227
				0.949847
				0.955698
				0.94457
				0.951893
				0.938039
				0.946838
				0.930475
				0.940691
				0.922251
				0.933754
				0.913894
				0.92647
				0.906072
				0.919415
				0.899568
				0.913265
				0.895199
				0.908744
				0.893706
				0.906534
				0.895607
				0.90717
				0.901078
				0.91093
				0.909912
				0.917779
				0.921588
				0.927385
				0.935398
				0.939204
				0.950578
				0.952588
				0.966395
				0.966875
				0.982196
				0.981446
				0.997426
				0.995754
				1.01162
				1.00933
				1.0244
				1.0218
				1.03547
				1.03283
				1.04459
				1.04217
				1.05158
				1.04963
				1.05631
				1.05506
				1.05869
				1.05836
				1.05869
				1.05946
				1.05631
				1.05836
				1.05158
				1.05506
				1.04459
				1.04963
				1.03547
				1.04217
				1.0244
				1.03283
				1.01162
				1.0218
				0.997426
				1.00933
				0.982196
				0.995754
				0.966395
				0.981446
				0.950578
				0.966875
				0.935398
				0.952588
				0.921588
				0.939204
				0.909912
				0.927385
				0.901078
				0.917779
				0.895607
				0.91093
				0.893706
				0.90717
				0.895199
				0.906534
				0.899568
				0.908744
				0.906072
				0.913265
				0.913893
				0.919415
				0.922252
				0.92647
				0.930475
				0.933754
				0.938039
				0.940691
				0.94457
				0.946838
				0.949847
				0.951893
				0.953781
				0.955698
				0.9564
				0.958227
				0.957841
				0.959574
				0.958367
				0.959962
				0.958358
				0.959752
				0.95822
				0.959378
				0.964678
				0.963254
				0.965412
				0.963542
				0.966532
				0.964234
				0.967507
				0.964898
				0.967839
				0.965052
				0.9672
				0.964339
				0.965444
				0.962565
				0.962569
				0.95967
				0.958695
				0.955704
				0.954055
				0.950822
				0.948983
				0.945291
				0.943903
				0.939485
				0.939304
				0.933879
				0.935709
				0.929027
				0.933625
				0.925516
				0.933479
				0.923901
				0.935545
				0.924613
				0.939889
				0.927871
				0.946362
				0.93364
				0.954636
				0.941641
				0.964266
				0.951418
				0.974763
				0.962427
				0.985647
				0.974116
				0.996484
				0.985971
				1.0069
				0.997545
				1.01658
				1.00847
				1.02527
				1.01843
				1.03278
				1.0272
				1.03894
				1.03459
				1.04366
				1.04047
				1.04685
				1.04474
				1.04845
				1.04732
				1.04845
				1.04818
				1.04685
				1.04732
				1.04366
				1.04474
				1.03894
				1.04047
				1.03278
				1.03459
				1.02527
				1.0272
				1.01658
				1.01843
				1.0069
				1.00847
				0.996484
				0.997545
				0.985647
				0.985971
				0.974763
				0.974116
				0.964266
				0.962427
				0.954636
				0.951417
				0.946362
				0.941641
				0.939889
				0.93364
				0.935545
				0.927871
				0.933479
				0.924613
				0.933625
				0.923901
				0.935709
				0.925516
				0.939304
				0.929027
				0.943904
				0.933879
				0.948984
				0.939485
				0.954055
				0.945291
				0.958695
				0.950822
				0.962569
				0.955704
				0.965444
				0.95967
				0.9672
				0.962565
				0.967839
				0.964339
				0.967507
				0.965052
				0.966532
				0.964898
				0.965412
				0.964234
				0.964678
				0.963542
				0.967576
				0.969033
				0.968509
				0.969636
				0.969961
				0.971199
				0.971325
				0.973111
				0.972083
				0.974694
				0.971942
				0.975461
				0.970812
				0.975198
				0.968738
				0.973895
				0.965855
				0.971679
				0.962374
				0.968758
				0.958574
				0.965404
				0.954793
				0.961932
				0.951412
				0.958689
				0.948837
				0.956041
				0.947455
				0.954342
				0.947586
				0.953903
				0.949431
				0.954949
				0.953032
				0.957579
				0.958263
				0.961749
				0.964862
				0.967283
				0.972477
				0.973903
				0.980722
				0.981276
				0.989221
				0.989056
				0.997634
				0.996918
				1.00567
				1.00457
				1.0131
				1.01177
				1.01973
				1.01833
				1.02543
				1.02409
				1.0301
				1.02893
				1.03365
				1.03277
				1.03604
				1.03555
				1.03725
				1.03724
				1.03725
				1.0378
				1.03604
				1.03724
				1.03365
				1.03555
				1.0301
				1.03277
				1.02543
				1.02893
				1.01973
				1.02409
				1.0131
				1.01833
				1.00567
				1.01177
				0.997634
				1.00457
				0.989221
				0.996918
				0.980722
				0.989056
				0.972476
				0.981276
				0.964862
				0.973903
				0.958263
				0.967283
				0.953032
				0.961749
				0.949431
				0.957579
				0.947586
				0.954949
				0.947455
				0.953903
				0.948837
				0.954342
				0.951412
				0.956041
				0.954793
				0.958689
				0.958574
				0.961932
				0.962374
				0.965404
				0.965855
				0.968758
				0.968738
				0.971679
				0.970812
				0.973895
				0.971942
				0.975198
				0.972083
				0.975461
				0.971325
				0.974694
				0.969961
				0.973112
				0.968509
				0.971199
				0.967576
				0.969636
				0.972644
				0.970683
				0.974164
				0.971386
				0.976606
				0.973205
				0.979108
				0.975438
				0.980957
				0.977351
				0.981813
				0.978476
				0.981652
				0.978659
				0.980619
				0.977946
				0.978932
				0.976482
				0.976829
				0.974461
				0.974559
				0.97211
				0.972373
				0.969678
				0.970523
				0.967434
				0.969251
				0.965652
				0.968773
				0.964596
				0.969255
				0.964489
				0.970792
				0.965491
				0.973387
				0.967662
				0.976956
				0.970961
				0.981339
				0.975249
				0.986324
				0.980315
				0.991678
				0.985907
				0.997169
				0.991767
				1.00259
				0.997652
				1.00775
				1.00335
				1.01251
				1.00868
				1.01675
				1.0135
				1.02039
				1.01771
				1.02335
				1.02124
				1.02561
				1.02403
				1.02713
				1.02604
				1.0279
				1.02726
				1.0279
				1.02766
				1.02713
				1.02726
				1.02561
				1.02604
				1.02335
				1.02403
				1.02039
				1.02124
				1.01675
				1.01771
				1.01251
				1.0135
				1.00775
				1.00868
				1.00259
				1.00335
				0.997169
				0.997652
				0.991678
				0.991767
				0.986324
				0.985907
				0.981339
				0.980315
				0.976956
				0.975249
				0.973387
				0.970961
				0.970792
				0.967662
				0.969255
				0.965491
				0.968773
				0.964489
				0.969251
				0.964596
				0.970523
				0.965652
				0.972373
				0.967434
				0.974559
				0.969678
				0.976829
				0.97211
				0.978932
				0.974461
				0.980619
				0.976482
				0.981652
				0.977946
				0.981813
				0.978659
				0.980957
				0.978476
				0.979108
				0.977351
				0.976606
				0.975438
				0.974164
				0.973205
				0.972644
				0.971386
				0.973501
				0.975099
				0.975188
				0.976068
				0.977884
				0.97857
				0.980647
				0.981641
				0.982756
				0.984308
				0.983924
				0.986025
				0.984181
				0.986705
				0.983696
				0.986513
				0.982672
				0.985688
				0.981314
				0.984462
				0.97982
				0.983046
				0.978387
				0.981629
				0.977203
				0.980389
				0.976448
				0.97949
				0.976276
				0.97908
				0.9768
				0.979276
				0.978081
				0.980153
				0.980112
				0.981733
				0.982826
				0.98398
				0.986102
				0.986805
				0.989785
				0.990081
				0.993706
				0.993658
				0.997699
				0.99738
				1.00161
				1.0011
				1.00532
				1.00469
				1.00872
				1.00803
				1.01173
				1.01106
				1.0143
				1.01369
				1.01639
				1.01589
				1.01797
				1.01763
				1.01903
				1.01888
				1.01957
				1.01964
				1.01957
				1.01989
				1.01903
				1.01964
				1.01797
				1.01888
				1.01639
				1.01763
				1.0143
				1.01589
				1.01173
				1.01369
				1.00872
				1.01106
				1.00532
				1.00803
				1.00161
				1.00469
				0.997698
				1.0011
				0.993706
				0.99738
				0.989785
				0.993658
				0.986102
				0.990081
				0.982826
				0.986805
				0.980112
				0.98398
				0.978081
				0.981733
				0.9768
				0.980153
				0.976276
				0.979276
				0.976448
				0.97908
				0.977203
				0.97949
				0.978387
				0.980389
				0.97982
				0.981629
				0.981314
				0.983046
				0.982672
				0.984462
				0.983696
				0.985688
				0.984181
				0.986513
				0.983924
				0.986705
				0.982756
				0.986025
				0.980647
				0.984308
				0.977884
				0.981641
				0.975188
				0.97857
				0.973501
				0.976068
				0.977713
				0.97562
				0.979762
				0.976659
				0.98298
				0.979326
				0.986181
				0.982574
				0.988545
				0.985401
				0.989847
				0.987301
				0.990247
				0.988244
				0.990013
				0.988419
				0.989384
				0.988054
				0.988554
				0.987353
				0.987676
				0.986487
				0.986878
				0.985609
				0.986275
				0.984853
				0.985967
				0.984343
				0.986035
				0.984183
				0.986534
				0.984453
				0.987488
				0.985201
				0.988884
				0.986437
				0.990676
				0.988129
				0.99279
				0.990211
				0.995132
				0.99259
				0.997601
				0.995159
				1.0001
				0.997809
				1.00253
				1.00044
				1.00483
				1.00296
				1.00693
				1.00529
				1.00879
				1.00739
				1.01037
				1.00921
				1.01166
				1.01072
				1.01263
				1.01191
				1.01328
				1.01277
				1.01361
				1.01328
				1.01361
				1.01345
				1.01328
				1.01328
				1.01263
				1.01277
				1.01166
				1.01191
				1.01037
				1.01072
				1.00879
				1.00921
				1.00693
				1.00739
				1.00483
				1.00529
				1.00253
				1.00296
				1.0001
				1.00044
				0.997601
				0.997809
				0.995132
				0.995159
				0.99279
				0.99259
				0.990676
				0.990211
				0.988884
				0.988129
				0.987488
				0.986437
				0.986534
				0.985201
				0.986035
				0.984453
				0.985967
				0.984183
				0.986275
				0.984343
				0.986878
				0.984853
				0.987676
				0.985609
				0.988555
				0.986487
				0.989384
				0.987353
				0.990013
				0.988054
				0.990248
				0.988419
				0.989847
				0.988244
				0.988545
				0.987301
				0.986181
				0.985401
				0.98298
				0.982574
				0.979762
				0.979326
				0.977713
				0.976659
				0.978294
				0.979733
				0.980415
				0.980881
				0.983717
				0.983776
				0.986975
				0.987176
				0.989398
				0.989977
				0.990819
				0.991735
				0.991427
				0.992548
				0.991483
				0.992706
				0.991202
				0.992471
				0.990746
				0.992031
				0.990238
				0.991518
				0.989779
				0.991031
				0.989455
				0.990651
				0.989338
				0.990444
				0.989483
				0.990467
				0.989925
				0.990759
				0.990677
				0.991339
				0.991728
				0.992206
				0.99304
				0.993337
				0.99456
				0.994688
				0.996222
				0.996204
				0.997957
				0.997821
				0.999698
				0.999474
				1.00138
				1.0011
				1.00296
				1.00266
				1.0044
				1.00409
				1.00566
				1.00537
				1.00673
				1.00649
				1.0076
				1.00741
				1.00825
				1.00813
				1.00868
				1.00865
				1.0089
				1.00896
				1.0089
				1.00907
				1.00868
				1.00896
				1.00825
				1.00865
				1.0076
				1.00813
				1.00673
				1.00741
				1.00566
				1.00649
				1.0044
				1.00537
				1.00296
				1.00409
				1.00138
				1.00266
				0.999698
				1.0011
				0.997957
				0.999474
				0.996222
				0.997821
				0.99456
				0.996204
				0.99304
				0.994688
				0.991728
				0.993337
				0.990677
				0.992206
				0.989925
				0.991339
				0.989483
				0.990759
				0.989338
				0.990467
				0.989455
				0.990444
				0.989779
				0.990651
				0.990238
				0.991031
				0.990746
				0.991518
				0.991202
				0.992031
				0.991483
				0.992471
				0.991427
				0.992706
				0.990819
				0.992548
				0.989398
				0.991735
				0.986975
				0.989977
				0.983717
				0.987176
				0.980415
				0.983776
				0.978294
				0.980881
				0.982396
				0.980497
				0.984534
				0.981654
				0.987757
				0.984553
				0.990771
				0.98792
				0.992848
				0.990676
				0.99395
				0.992431
				0.994365
				0.993322
				0.99438
				0.993637
				0.994191
				0.993614
				0.993918
				0.993415
				0.993641
				0.993147
				0.993419
				0.992888
				0.993298
				0.9927
				0.993315
				0.992631
				0.993497
				0.992719
				0.993859
				0.99299
				0.994404
				0.993456
				0.995121
				0.994111
				0.995985
				0.994939
				0.996963
				0.995908
				0.998016
				0.996979
				0.999102
				0.998108
				1.00018
				0.999251
				1.00122
				1.00037
				1.00219
				1.00143
				1.00307
				1.0024
				1.00384
				1.00326
				1.00449
				1.00401
				1.00502
				1.00462
				1.00541
				1.00511
				1.00568
				1.00545
				1.00581
				1.00566
				1.00581
				1.00573
				1.00568
				1.00566
				1.00541
				1.00545
				1.00502
				1.00511
				1.00449
				1.00462
				1.00384
				1.00401
				1.00307
				1.00326
				1.00219
				1.0024
				1.00122
				1.00143
				1.00018
				1.00037
				0.999102
				0.999251
				0.998016
				0.998108
				0.996963
				0.996979
				0.995985
				0.995908
				0.995121
				0.994939
				0.994404
				0.994111
				0.993859
				0.993456
				0.993497
				0.99299
				0.993315
				0.992719
				0.993298
				0.992631
				0.993419
				0.9927
				0.993641
				0.992888
				0.993918
				0.993147
				0.994191
				0.993415
				0.99438
				0.993614
				0.994365
				0.993637
				0.99395
				0.993322
				0.992848
				0.992431
				0.990771
				0.990676
				0.987757
				0.98792
				0.984534
				0.984553
				0.982396
				0.981654
				0.983338
				0.984488
				0.985434
				0.985581
				0.988564
				0.988259
				0.991456
				0.991233
				0.99344
				0.993502
				0.994524
				0.994815
				0.994998
				0.995404
				0.995127
				0.995574
				0.995082
				0.995538
				0.994963
				0.995415
				0.994834
				0.995274
				0.994738
				0.995158
				0.99471
				0.9951
				0.994775
				0.995124
				0.994951
				0.995249
				0.995247
				0.995485
				0.995664
				0.995836
				0.996191
				0.996297
				0.996812
				0.996854
				0.997503
				0.997488
				0.998237
				0.998175
				0.998987
				0.998889
				0.999727
				0.999605
				1.00043
				1.0003
				1.00109
				1.00095
				1.00168
				1.00155
				1.00219
				1.00208
				1.00263
				1.00253
				1.00298
				1.00291
				1.00324
				1.0032
				1.00341
				1.00341
				1.0035
				1.00354
				1.0035
				1.00358
				1.00341
				1.00354
				1.00324
				1.00341
				1.00298
				1.0032
				1.00263
				1.00291
				1.00219
				1.00253
				1.00168
				1.00208
				1.00109
				1.00155
				1.00043
				1.00095
				0.999727
				1.0003
				0.998987
				0.999605
				0.998237
				0.998889
				0.997503
				0.998175
				0.996812
				0.997488
				0.996191
				0.996854
				0.995664
				0.996297
				0.995247
				0.995836
				0.994951
				0.995485
				0.994775
				0.995249
				0.99471
				0.995124
				0.994738
				0.9951
				0.994834
				0.995158
				0.994963
				0.995274
				0.995082
				0.995415
				0.995127
				0.995538
				0.994998
				0.995574
				0.994524
				0.995404
				0.99344
				0.994815
				0.991456
				0.993502
				0.988564
				0.991233
				0.985434
				0.988259
				0.983338
				0.985581
				0.987066
				0.985537
				0.988909
				0.986588
				0.991572
				0.989147
				0.993896
				0.991956
				0.995363
				0.994075
				0.996081
				0.995304
				0.996353
				0.995884
				0.996409
				0.996103
				0.996376
				0.996146
				0.996317
				0.996116
				0.996267
				0.996065
				0.996249
				0.996028
				0.99628
				0.996028
				0.996372
				0.996083
				0.996534
				0.996204
				0.996767
				0.996399
				0.997069
				0.996669
				0.997434
				0.99701
				0.99785
				0.997412
				0.998302
				0.997862
				0.998775
				0.998343
				0.999252
				0.998838
				0.999718
				0.99933
				1.00016
				0.999804
				1.00057
				1.00025
				1.00093
				1.00065
				1.00125
				1.00101
				1.00152
				1.00131
				1.00173
				1.00157
				1.00189
				1.00176
				1.002
				1.0019
				1.00205
				1.00198
				1.00205
				1.00201
				1.002
				1.00198
				1.00189
				1.0019
				1.00173
				1.00176
				1.00152
				1.00157
				1.00125
				1.00131
				1.00093
				1.00101
				1.00057
				1.00065
				1.00016
				1.00025
				0.999718
				0.999804
				0.999252
				0.99933
				0.998775
				0.998838
				0.998302
				0.998343
				0.99785
				0.997862
				0.997434
				0.997412
				0.997069
				0.99701
				0.996767
				0.996669
				0.996534
				0.996399
				0.996372
				0.996204
				0.99628
				0.996083
				0.996249
				0.996028
				0.996267
				0.996028
				0.996317
				0.996065
				0.996376
				0.996116
				0.996409
				0.996146
				0.996353
				0.996103
				0.996081
				0.995884
				0.995363
				0.995304
				0.993896
				0.994075
				0.991572
				0.991956
				0.988909
				0.989147
				0.987066
				0.986588
				0.988116
				0.988962
				0.989853
				0.989845
				0.992341
				0.991949
				0.994485
				0.994162
				0.995828
				0.995726
				0.996494
				0.996554
				0.996771
				0.996901
				0.996865
				0.997015
				0.996884
				0.997034
				0.996878
				0.997023
				0.996876
				0.997012
				0.996892
				0.997016
				0.99694
				0.997049
				0.997027
				0.997119
				0.997158
				0.997231
				0.997336
				0.997391
				0.997558
				0.997594
				0.997822
				0.997837
				0.998118
				0.998114
				0.998437
				0.998416
				0.998768
				0.998734
				0.9991
				0.999056
				0.999423
				0.999373
				0.999728
				0.999676
				1.00001
				0.999957
				1.00026
				1.00021
				1.00048
				1.00043
				1.00066
				1.00062
				1.0008
				1.00078
				1.00091
				1.0009
				1.00099
				1.00099
				1.00102
				1.00104
				1.00102
				1.00106
				1.00099
				1.00104
				1.00091
				1.00099
				1.0008
				1.0009
				1.00066
				1.00078
				1.00048
				1.00062
				1.00026
				1.00043
				1.00001
				1.00021
				0.999728
				0.999957
				0.999423
				0.999676
				0.9991
				0.999373
				0.998768
				0.999056
				0.998437
				0.998734
				0.998118
				0.998416
				0.997822
				0.998114
				0.997558
				0.997837
				0.997336
				0.997594
				0.997158
				0.997391
				0.997027
				0.997231
				0.99694
				0.997119
				0.996892
				0.997049
				0.996876
				0.997016
				0.996878
				0.997012
				0.996884
				0.997023
				0.996865
				0.997034
				0.996771
				0.997015
				0.996494
				0.996901
				0.995828
				0.996554
				0.994485
				0.995726
				0.992341
				0.994162
				0.989853
				0.991949
				0.988116
				0.989845
				0.991112
				0.989988
				0.992493
				0.990809
				0.994415
				0.992757
				0.995993
				0.994785
				0.996913
				0.9962
				0.997326
				0.996946
				0.997479
				0.997269
				0.997528
				0.997392
				0.997542
				0.997437
				0.997551
				0.997455
				0.997568
				0.997472
				0.997601
				0.997498
				0.997654
				0.997541
				0.997734
				0.997607
				0.997843
				0.997698
				0.997986
				0.997815
				0.998151
				0.997959
				0.998339
				0.998129
				0.998546
				0.998327
				0.998766
				0.998544
				0.998991
				0.998772
				0.999212
				0.999003
				0.999424
				0.99923
				0.999622
				0.999445
				0.999801
				0.999645
				0.999959
				0.999824
				1.0001
				0.999982
				1.00021
				1.00012
				1.0003
				1.00022
				1.00037
				1.00031
				1.00041
				1.00037
				1.00043
				1.00041
				1.00043
				1.00042
				1.00041
				1.00041
				1.00037
				1.00037
				1.0003
				1.00031
				1.00021
				1.00022
				1.0001
				1.00012
				0.999959
				0.999982
				0.999801
				0.999824
				0.999622
				0.999645
				0.999424
				0.999445
				0.999212
				0.99923
				0.998991
				0.999003
				0.998766
				0.998772
				0.998546
				0.998544
				0.998339
				0.998327
				0.998151
				0.998129
				0.997986
				0.997959
				0.997843
				0.997815
				0.997734
				0.997698
				0.997654
				0.997607
				0.997601
				0.997541
				0.997568
				0.997498
				0.997551
				0.997472
				0.997542
				0.997455
				0.997528
				0.997437
				0.997479
				0.997392
				0.997326
				0.997269
				0.996913
				0.996946
				0.995993
				0.9962
				0.994415
				0.994785
				0.992493
				0.992757
				0.991112
				0.990809
				0.992093
				0.992694
				0.993358
				0.993324
				0.995105
				0.994791
				0.996518
				0.996266
				0.997326
				0.997237
				0.997681
				0.9977
				0.997811
				0.99787
				0.997855
				0.997919
				0.997873
				0.997931
				0.99789
				0.997938
				0.997916
				0.997952
				0.997956
				0.99798
				0.998015
				0.998026
				0.998093
				0.998092
				0.99819
				0.998179
				0.998299
				0.998291
				0.998403
				0.998441
				0.998544
				0.998588
				0.998706
				0.998744
				0.998879
				0.99891
				0.999052
				0.999077
				0.99922
				0.999239
				0.999378
				0.999391
				0.999522
				0.99953
				0.999652
				0.999655
				0.999764
				0.999764
				0.99986
				0.999857
				0.99994
				0.999934
				1
				0.999996
				1.00005
				1.00004
				1.00008
				1.00008
				1.00009
				1.0001
				1.00009
				1.0001
				1.00008
				1.0001
				1.00005
				1.00008
				1
				1.00004
				0.99994
				0.999996
				0.99986
				0.999934
				0.999764
				0.999857
				0.999652
				0.999764
				0.999522
				0.999655
				0.999378
				0.99953
				0.99922
				0.999391
				0.999052
				0.999239
				0.998879
				0.999077
				0.998706
				0.99891
				0.998544
				0.998744
				0.998403
				0.998588
				0.998299
				0.998441
				0.99819
				0.998291
				0.998093
				0.998179
				0.998015
				0.998092
				0.997956
				0.998026
				0.997916
				0.99798
				0.99789
				0.997952
				0.997873
				0.997938
				0.997855
				0.997931
				0.997811
				0.997919
				0.997681
				0.99787
				0.997326
				0.9977
				0.996518
				0.997237
				0.995105
				0.996266
				0.993358
				0.994791
				0.992093
				0.993324
				0.994688
				0.993871
				0.995599
				0.994433
				0.996815
				0.99573
				0.997729
				0.997001
				0.99817
				0.997793
				0.998287
				0.998123
				0.998262
				0.998198
				0.998199
				0.998177
				0.998137
				0.998133
				0.998091
				0.998095
				0.998066
				0.998073
				0.998065
				0.998072
				0.998091
				0.998097
				0.998146
				0.99815
				0.998233
				0.998237
				0.998356
				0.998365
				0.998951
				0.998551
				0.99916
				0.998862
				0.999322
				0.999062
				0.999453
				0.999226
				0.999561
				0.999365
				0.999653
				0.999484
				0.999729
				0.999587
				0.999793
				0.999676
				0.999846
				0.999751
				0.99989
				0.999815
				0.999925
				0.999868
				0.999953
				0.999912
				0.999974
				0.999946
				0.999989
				0.999972
				0.999998
				0.99999
				1
				1
				1
				1
				0.999998
				1
				0.999989
				0.99999
				0.999974
				0.999972
				0.999953
				0.999946
				0.999925
				0.999912
				0.99989
				0.999868
				0.999846
				0.999815
				0.999793
				0.999751
				0.999729
				0.999676
				0.999653
				0.999587
				0.999561
				0.999484
				0.999453
				0.999365
				0.999322
				0.999226
				0.99916
				0.999062
				0.998951
				0.998862
				0.998356
				0.998551
				0.998233
				0.998365
				0.998146
				0.998237
				0.998091
				0.99815
				0.998065
				0.998097
				0.998066
				0.998072
				0.998091
				0.998073
				0.998137
				0.998095
				0.998199
				0.998133
				0.998262
				0.998177
				0.998287
				0.998198
				0.99817
				0.998123
				0.997729
				0.997793
				0.996815
				0.997001
				0.995599
				0.99573
				0.994688
				0.994433
			</DataArray>
			<DataArray type="Float64" Name="mach-number" Format="ascii">
				0.0143483
				0.0235835
				0.0401836
				0.0361345
				0.0695288
				0.0613035
				0.102811
				0.0920309
				0.140284
				0.127337
				0.181719
				0.16682
				0.226604
				0.209953
				0.274245
				0.256053
				0.323805
				0.304289
				0.374273
				0.353691
				0.424427
				0.403097
				0.472801
				0.451151
				0.517655
				0.496275
				0.557009
				0.536683
				0.588724
				0.570482
				0.610816
				0.595807
				0.621803
				0.611181
				0.621157
				0.61577
				0.609364
				0.609649
				0.587796
				0.593661
				0.558177
				0.569199
				0.522247
				0.537777
				0.481514
				0.50085
				0.437177
				0.459652
				0.390171
				0.415191
				0.341181
				0.368281
				0.29073
				0.319559
				0.239214
				0.269579
				0.186945
				0.218863
				0.134197
				0.168044
				0.0813076
				0.118303
				0.0296987
				0.0732987
				0.0296987
				0.0498608
				0.0813077
				0.0732987
				0.134197
				0.118303
				0.186945
				0.168044
				0.239214
				0.218863
				0.29073
				0.26958
				0.341181
				0.319559
				0.390171
				0.368281
				0.437177
				0.415191
				0.481514
				0.459652
				0.522248
				0.50085
				0.558178
				0.537778
				0.587796
				0.569199
				0.609364
				0.593661
				0.621156
				0.609649
				0.621803
				0.61577
				0.610816
				0.611181
				0.588724
				0.595807
				0.557009
				0.570482
				0.517655
				0.536682
				0.472801
				0.496275
				0.424426
				0.451151
				0.374273
				0.403097
				0.323805
				0.35369
				0.274245
				0.304288
				0.226603
				0.256053
				0.181719
				0.209953
				0.140283
				0.16682
				0.102811
				0.127337
				0.0695288
				0.092031
				0.0401835
				0.0613035
				0.0143482
				0.0361344
				0.0571172
				0.0366083
				0.0734106
				0.0470741
				0.0998851
				0.0710305
				0.132551
				0.101805
				0.169613
				0.137412
				0.210031
				0.176965
				0.25294
				0.219695
				0.297463
				0.264784
				0.342657
				0.311326
				0.387493
				0.358325
				0.430847
				0.404673
				0.471484
				0.449145
				0.508057
				0.49037
				0.539134
				0.526837
				0.563281
				0.556931
				0.579243
				0.579071
				0.586171
				0.591957
				0.583825
				0.594872
				0.572621
				0.587872
				0.553495
				0.571755
				0.527655
				0.547797
				0.496357
				0.517432
				0.460766
				0.482019
				0.421894
				0.442728
				0.380614
				0.40052
				0.337692
				0.356174
				0.293865
				0.310346
				0.249952
				0.26364
				0.20706
				0.216722
				0.167027
				0.170555
				0.133374
				0.127046
				0.112683
				0.0911207
				0.112683
				0.0753615
				0.133374
				0.0911207
				0.167027
				0.127046
				0.207061
				0.170556
				0.249953
				0.216722
				0.293865
				0.26364
				0.337691
				0.310346
				0.380614
				0.356174
				0.421894
				0.40052
				0.460766
				0.442728
				0.496357
				0.482019
				0.527655
				0.517432
				0.553495
				0.547797
				0.572621
				0.571755
				0.583825
				0.587872
				0.586171
				0.594872
				0.579243
				0.591957
				0.563281
				0.579071
				0.539134
				0.556931
				0.508057
				0.526837
				0.471484
				0.49037
				0.430846
				0.449145
				0.387493
				0.404673
				0.342657
				0.358325
				0.297463
				0.311326
				0.25294
				0.264784
				0.210031
				0.219695
				0.169613
				0.176965
				0.132551
				0.137412
				0.099885
				0.101805
				0.0734105
				0.0710304
				0.0571172
				0.047074
				0.0728886
				0.0895092
				0.0887298
				0.0975155
				0.115283
				0.118779
				0.148295
				0.148456
				0.185368
				0.183046
				0.225042
				0.22049
				0.266236
				0.259519
				0.307996
				0.299186
				0.349416
				0.338656
				0.389603
				0.377132
				0.427663
				0.413821
				0.462663
				0.44791
				0.4936
				0.478524
				0.519397
				0.504721
				0.538951
				0.525513
				0.551274
				0.539963
				0.555686
				0.547335