<VTKFile type="UnstructuredGrid" version="0.1" byte_order="LittleEndian">
<UnstructuredGrid>
	<Piece NumberOfPoints="1088" NumberOfCells="2048">
		<CellData Scalars="density" Vectors="velocity">
			<DataArray type="Float64" Name="density" Format="ascii">
				1.05924
				1.05693
				1.05761
				1.05643
				1.0521
				1.05376
				1.04144
				1.04686
				1.02542
				1.03493
				1.00459
				1.01816
				0.979774
				0.99723
				0.951841
				0.972943
				0.92167
				0.946122
				0.890179
				0.917595
				0.858352
				0.888259
				0.827302
				0.859104
				0.798411
				0.83131
				0.773332
				0.80635
				0.7543
				0.786036
				0.743764
				0.772635
				0.743776
				0.768238
				0.754285
				0.773738
				0.773471
				0.788035
				0.79876
				0.808995
				0.827947
				0.834383
				0.85925
				0.862411
				0.891264
				0.891644
				0.922869
				0.92095
				0.953109
				0.9494
				0.981198
				0.976208
				1.00645
				1.00071
				1.0283
				1.02235
				1.04625
				1.04064
				1.05995
				1.05519
				1.06904
				1.06569
				1.07302
				1.07203
				1.07302
				1.07398
				1.06904
				1.07203
				1.05995
				1.06569
				1.04625
				1.05519
				1.0283
				1.04064
				1.00646
				1.02235
				0.9812
				1.00072
				0.953111
				0.97621
				0.922871
				0.949403
				0.891268
				0.920952
				0.859253
				0.891647
				0.827951
				0.862414
				0.798765
				0.834387
				0.773476
				0.809
				0.754291
				0.788041
				0.743782
				0.773744
				0.743771
				0.768244
				0.754306
				0.77264
				0.773337
				0.786042
				0.798416
				0.806355
				0.827306
				0.831314
				0.858356
				0.859108
				0.890183
				0.888262
				0.921673
				0.917598
				0.951843
				0.946125
				0.979776
				0.972945
				1.0046
				0.997232
				1.02542
				1.01816
				1.04144
				1.03493
				1.0521
				1.04687
				1.05761
				1.05376
				1.05924
				1.05643
				1.05496
				1.0594
				1.05329
				1.05877
				1.04954
				1.05565
				1.04206
				1.04891
				1.03088
				1.03847
				1.01639
				1.02441
				0.999065
				1.00709
				0.979416
				0.986969
				0.957996
				0.964606
				0.935428
				0.940621
				0.912442
				0.915724
				0.88992
				0.890749
				0.86896
				0.86672
				0.850931
				0.844919
				0.837476
				0.826961
				0.830286
				0.81478
				0.830512
				0.810195
				0.838105
				0.814016
				0.851849
				0.825486
				0.870045
				0.842853
				0.891085
				0.864223
				0.913645
				0.887984
				0.936674
				0.912849
				0.959339
				0.937802
				0.980964
				0.962024
				1.001
				0.984841
				1.01898
				1.00569
				1.03453
				1.02411
				1.04734
				1.0397
				1.05717
				1.05213
				1.06385
				1.06116
				1.06722
				1.06654
				1.06722
				1.06826
				1.06385
				1.06654
				1.05717
				1.06116
				1.04734
				1.05214
				1.03453
				1.0397
				1.01898
				1.02411
				1.001
				1.00569
				0.980966
				0.984843
				0.959341
				0.962026
				0.936677
				0.937805
				0.913648
				0.912851
				0.891088
				0.887987
				0.870049
				0.864227
				0.851853
				0.842857
				0.838109
				0.825491
				0.830517
				0.814021
				0.83029
				0.8102
				0.83748
				0.814784
				0.850935
				0.826966
				0.868963
				0.844923
				0.889923
				0.866723
				0.912445
				0.890753
				0.935431
				0.915727
				0.957998
				0.940623
				0.979418
				0.964608
				0.999067
				0.986971
				1.01639
				1.00709
				1.03088
				1.02441
				1.04206
				1.03847
				1.04954
				1.04891
				1.05329
				1.05565
				1.05496
				1.05877
				1.05361
				1.05018
				1.05268
				1.04884
				1.04818
				1.04677
				1.04108
				1.04188
				1.03146
				1.0343
				1.01945
				1.02437
				1.00523
				1.01236
				0.989109
				0.998517
				0.971463
				0.983145
				0.952794
				0.966645
				0.933715
				0.949525
				0.914979
				0.932425
				0.897523
				0.916133
				0.882487
				0.901615
				0.8712
				0.889991
				0.864976
				0.882429
				0.864695
				0.879872
				0.870387
				0.882689
				0.881228
				0.890492
				0.895941
				0.902321
				0.913215
				0.917007
				0.931903
				0.933443
				0.951071
				0.950689
				0.969968
				0.967984
				0.987995
				0.984721
				1.00467
				1.00042
				1.01961
				1.01468
				1.03249
				1.02722
				1.04307
				1.03779
				1.05115
				1.0462
				1.05661
				1.05231
				1.05937
				1.05601
				1.05937
				1.05724
				1.05661
				1.05601
				1.05115
				1.05231
				1.04307
				1.0462
				1.03249
				1.03779
				1.01961
				1.02722
				1.00467
				1.01469
				0.987997
				1.00042
				0.96997
				0.984722
				0.951073
				0.967985
				0.931906
				0.950691
				0.913217
				0.933445
				0.895944
				0.91701
				0.881231
				0.902324
				0.870391
				0.890495
				0.864698
				0.882693
				0.86498
				0.879875
				0.871204
				0.882432
				0.88249
				0.889994
				0.897526
				0.901618
				0.914982
				0.916136
				0.933717
				0.932427
				0.952796
				0.949527
				0.971465
				0.966646
				0.989111
				0.983147
				1.00524
				0.998518
				1.01945
				1.01236
				1.03146
				1.02437
				1.04108
				1.0343
				1.04818
				1.04188
				1.05268
				1.04677
				1.05361
				1.04884
				1.04075
				1.04419
				1.03977
				1.04468
				1.03707
				1.04285
				1.03212
				1.03823
				1.02552
				1.03178
				1.01748
				1.02364
				1.00812
				1.01393
				0.997614
				1.0028
				0.986171
				0.990464
				0.974113
				0.977221
				0.961861
				0.963472
				0.949946
				0.94973
				0.939017
				0.93664
				0.929815
				0.924982
				0.923117
				0.91564
				0.919602
				0.909503
				0.919679
				0.907265
				0.923348
				0.909203
				0.930202
				0.915077
				0.939564
				0.924222
				0.95066
				0.935775
				0.962752
				0.94886
				0.975201
				0.962698
				0.987482
				0.976637
				0.999177
				0.990152
				1.00996
				1.00283
				1.01958
				1.01434
				1.02784
				1.02444
				1.0346
				1.03292
				1.03975
				1.03966
				1.04322
				1.04453
				1.04498
				1.04745
				1.04498
				1.04843
				1.04323
				1.04745
				1.03975
				1.04453
				1.0346
				1.03966
				1.02784
				1.03292
				1.01958
				1.02444
				1.00996
				1.01434
				0.999179
				1.00283
				0.987484
				0.990153
				0.975203
				0.976638
				0.962753
				0.9627
				0.950661
				0.948862
				0.939566
				0.935777
				0.930204
				0.924224
				0.92335
				0.915079
				0.919682
				0.909206
				0.919605
				0.907268
				0.923119
				0.909506
				0.929817
				0.915643
				0.939019
				0.924984
				0.949948
				0.936643
				0.961862
				0.949732
				0.974114
				0.963473
				0.986172
				0.977222
				0.997615
				0.990465
				1.00813
				1.0028
				1.01748
				1.01393
				1.02552
				1.02364
				1.03212
				1.03178
				1.03707
				1.03823
				1.03977
				1.04285
				1.04075
				1.04468
				1.03383
				1.03083
				1.03437
				1.03034
				1.03174
				1.02954
				1.0277
				1.02667
				1.02246
				1.02254
				1.01612
				1.01741
				1.00875
				1.01136
				1.0005
				1.00447
				0.991524
				0.996865
				0.98208
				0.988742
				0.972496
				0.980364
				0.963194
				0.97207
				0.954682
				0.964274
				0.947529
				0.957454
				0.942318
				0.95211
				0.939538
				0.9487
				0.939479
				0.947558
				0.942153
				0.948808
				0.947286
				0.952329
				0.954403
				0.957794
				0.962933
				0.964744
				0.972308
				0.97268
				0.982018
				0.981124
				0.99163
				0.98966
				1.0008
				0.997946
				1.00925
				1.00571
				1.01679
				1.01274
				1.02325
				1.01889
				1.02852
				1.02404
				1.03253
				1.02811
				1.03522
				1.03105
				1.03656
				1.03283
				1.03656
				1.03343
				1.03522
				1.03283
				1.03253
				1.03105
				1.02852
				1.02811
				1.02325
				1.02404
				1.01679
				1.01889
				1.00925
				1.01274
				1.0008
				1.00571
				0.991631
				0.997947
				0.982019
				0.989661
				0.97231
				0.981125
				0.962934
				0.972681
				0.954404
				0.964746
				0.947288
				0.957796
				0.942155
				0.95233
				0.939481
				0.94881
				0.93954
				0.94756
				0.94232
				0.948702
				0.947531
				0.952112
				0.954683
				0.957456
				0.963196
				0.964276
				0.972498
				0.972071
				0.982081
				0.980365
				0.991525
				0.988743
				1.0005
				0.996866
				1.00875
				1.00447
				1.01612
				1.01136
				1.02246
				1.01741
				1.0277
				1.02254
				1.03174
				1.02667
				1.03437
				1.02954
				1.03383
				1.03034
				1.02125
				1.02332
				1.02134
				1.02468
				1.02008
				1.02402
				1.0177
				1.02165
				1.01464
				1.01851
				1.01092
				1.01459
				1.0066
				1.00996
				1.00176
				1.00468
				0.996511
				0.99885
				0.991017
				0.992634
				0.985486
				0.986235
				0.980175
				0.979915
				0.975378
				0.973993
				0.971412
				0.968827
				0.968575
				0.964787
				0.96711
				0.962203
				0.967152
				0.96131
				0.968702
				0.962194
				0.971625
				0.964776
				0.975683
				0.968829
				0.980574
				0.974026
				0.985981
				0.980001
				0.991606
				0.986394
				0.997189
				0.992883
				1.00252
				0.999195
				1.00743
				1.00512
				1.0118
				1.01048
				1.01553
				1.01517
				1.01858
				1.01909
				1.02089
				1.02218
				1.02244
				1.02441
				1.02322
				1.02575
				1.02322
				1.0262
				1.02244
				1.02575
				1.02089
				1.02441
				1.01858
				1.02218
				1.01553
				1.01909
				1.0118
				1.01517
				1.00743
				1.01048
				1.00252
				1.00512
				0.99719
				0.999196
				0.991606
				0.992884
				0.985982
				0.986395
				0.980575
				0.980002
				0.975684
				0.974027
				0.971626
				0.96883
				0.968703
				0.964778
				0.967153
				0.962196
				0.967111
				0.961312
				0.968576
				0.962205
				0.971413
				0.964789
				0.97538
				0.968828
				0.980176
				0.973994
				0.985487
				0.979916
				0.991018
				0.986236
				0.996512
				0.992635
				1.00176
				0.99885
				1.0066
				1.00468
				1.01092
				1.00996
				1.01464
				1.01459
				1.0177
				1.01851
				1.02009
				1.02165
				1.02134
				1.02402
				1.02125
				1.02468
				1.01578
				1.01391
				1.01684
				1.01402
				1.01553
				1.01396
				1.01379
				1.01273
				1.01152
				1.01102
				1.00875
				1.00886
				1.00552
				1.00628
				1.0019
				1.00332
				0.997973
				1.00007
				0.99387
				0.996605
				0.989749
				0.993062
				0.9858
				0.989589
				0.982245
				0.986364
				0.979312
				0.983582
				0.977219
				0.981432
				0.976133
				0.980079
				0.976149
				0.979637
				0.97727
				0.980144
				0.9794
				0.98156
				0.982372
				0.983773
				0.985971
				0.986619
				0.989966
				0.989903
				0.994136
				0.993431
				0.998284
				0.997022
				1.00225
				1.00052
				1.00591
				1.00381
				1.00916
				1.00678
				1.01194
				1.00937
				1.0142
				1.01154
				1.01591
				1.01325
				1.01706
				1.01448
				1.01763
				1.01522
				1.01763
				1.01547
				1.01706
				1.01522
				1.01591
				1.01448
				1.0142
				1.01325
				1.01194
				1.01154
				1.00916
				1.00937
				1.00591
				1.00678
				1.00225
				1.00381
				0.998284
				1.00052
				0.994136
				0.997023
				0.989967
				0.993431
				0.985972
				0.989904
				0.982373
				0.986619
				0.979401
				0.983774
				0.977271
				0.981561
				0.97615
				0.980145
				0.976134
				0.979638
				0.97722
				0.98008
				0.979313
				0.981433
				0.982246
				0.983583
				0.985801
				0.986365
				0.989749
				0.98959
				0.993871
				0.993062
				0.997973
				0.996606
				1.0019
				1.00007
				1.00552
				1.00332
				1.00875
				1.00628
				1.01152
				1.00886
				1.01379
				1.01102
				1.01553
				1.01273
				1.01684
				1.01396
				1.01578
				1.01402
				1.00858
				1.0093
				1.00897
				1.01068
				1.00854
				1.01046
				1.00765
				1.00951
				1.00647
				1.00829
				1.00499
				1.00671
				1.00326
				1.00483
				1.00132
				1.00266
				0.999226
				1.00028
				0.99704
				0.997754
				0.994855
				0.995167
				0.992774
				0.992636
				0.990912
				0.99029
				0.989388
				0.988271
				0.98831
				0.986715
				0.98776
				0.985737
				0.987784
				0.985417
				0.988381
				0.985781
				0.989504
				0.9868
				0.991071
				0.988397
				0.992973
				0.990454
				0.995089
				0.992835
				0.997304
				0.995397
				0.999511
				0.99801
				1.00162
				1.00056
				1.00357
				1.00295
				1.0053
				1.00512
				1.00678
				1.00701
				1.00798
				1.00859
				1.00889
				1.00983
				1.0095
				1.01072
				1.00981
				1.01126
				1.00981
				1.01144
				1.0095
				1.01126
				1.00889
				1.01073
				1.00798
				1.00983
				1.00678
				1.00859
				1.0053
				1.00701
				1.00357
				1.00512
				1.00162
				1.00295
				0.999511
				1.00056
				0.997304
				0.99801
				0.99509
				0.995397
				0.992973
				0.992835
				0.991072
				0.990455
				0.989505
				0.988398
				0.988382
				0.986801
				0.987785
				0.985781
				0.987761
				0.985418
				0.98831
				0.985738
				0.989388
				0.986716
				0.990912
				0.988272
				0.992774
				0.990291
				0.994856
				0.992636
				0.997041
				0.995167
				0.999226
				0.997754
				1.00132
				1.00028
				1.00326
				1.00266
				1.00499
				1.00483
				1.00647
				1.00671
				1.00765
				1.00829
				1.00854
				1.00951
				1.00897
				1.01046
				1.00858
				1.01068
				1.00585
				1.00501
				1.00672
				1.00526
				1.0062
				1.00543
				1.00558
				1.00502
				1.00473
				1.0044
				1.00367
				1.00359
				1.00243
				1.00261
				1.00103
				1.0015
				0.999527
				1.00027
				0.99796
				0.998969
				0.996394
				0.997641
				0.994905
				0.996345
				0.993576
				0.99515
				0.99249
				0.994125
				0.991723
				0.993339
				0.991334
				0.99285
				0.991354
				0.992693
				0.991781
				0.992884
				0.992583
				0.993407
				0.993701
				0.994223
				0.995059
				0.995276
				0.996572
				0.996496
				0.998157
				0.997812
				0.999738
				0.999156
				1.00125
				1.00047
				1.00265
				1.0017
				1.00389
				1.00282
				1.00495
				1.00379
				1.00581
				1.0046
				1.00646
				1.00524
				1.00689
				1.0057
				1.00711
				1.00598
				1.00711
				1.00607
				1.00689
				1.00598
				1.00646
				1.0057
				1.00581
				1.00524
				1.00495
				1.0046
				1.00389
				1.00379
				1.00265
				1.00282
				1.00125
				1.0017
				0.999739
				1.00047
				0.998158
				0.999156
				0.996573
				0.997812
				0.995059
				0.996496
				0.993702
				0.995276
				0.992583
				0.994224
				0.991781
				0.993407
				0.991354
				0.992884
				0.991335
				0.992694
				0.991724
				0.99285
				0.99249
				0.99334
				0.993576
				0.994126
				0.994906
				0.99515
				0.996395
				0.996346
				0.99796
				0.997641
				0.999527
				0.998969
				1.00103
				1.00027
				1.00243
				1.0015
				1.00367
				1.00261
				1.00473
				1.00359
				1.00558
				1.0044
				1.0062
				1.00502
				1.00672
				1.00543
				1.00585
				1.00526
				1.00283
				1.00291
				1.00322
				1.00389
				1.00314
				1.00389
				1.00284
				1.00357
				1.00241
				1.00313
				1.00188
				1.00255
				1.00126
				1.00186
				1.00056
				1.00108
				0.999808
				1.00021
				0.999026
				0.99929
				0.998246
				0.998353
				0.997506
				0.99744
				0.996847
				0.996599
				0.99631
				0.995879
				0.995932
				0.995328
				0.995742
				0.994986
				0.995755
				0.994879
				0.995969
				0.995016
				0.99637
				0.995388
				0.996928
				0.995965
				0.997606
				0.996709
				0.998363
				0.997571
				0.999157
				0.998502
				0.999949
				0.999452
				1.00071
				1.00038
				1.00141
				1.00125
				1.00203
				1.00204
				1.00256
				1.00273
				1.00299
				1.0033
				1.00332
				1.00375
				1.00354
				1.00408
				1.00364
				1.00427
				1.00364
				1.00434
				1.00354
				1.00427
				1.00332
				1.00408
				1.00299
				1.00375
				1.00256
				1.0033
				1.00203
				1.00273
				1.00141
				1.00204
				1.00071
				1.00125
				0.999949
				1.00038
				0.999157
				0.999452
				0.998363
				0.998502
				0.997607
				0.997572
				0.996928
				0.99671
				0.99637
				0.995966
				0.99597
				0.995388
				0.995755
				0.995017
				0.995743
				0.99488
				0.995932
				0.994986
				0.99631
				0.995328
				0.996847
				0.995879
				0.997506
				0.996599
				0.998247
				0.997441
				0.999026
				0.998354
				0.999808
				0.999291
				1.00056
				1.00021
				1.00126
				1.00108
				1.00188
				1.00186
				1.00241
				1.00255
				1.00284
				1.00313
				1.00314
				1.00357
				1.00322
				1.00389
				1.00283
				1.00389
				1.00174
				1.00144
				1.00238
				1.00169
				1.0022
				1.0019
				1.00199
				1.00176
				1.00168
				1.00154
				1.00131
				1.00126
				1.00088
				1.00093
				1.00039
				1.00054
				0.999868
				1.00012
				0.999322
				0.999671
				0.998778
				0.999214
				0.998262
				0.998769
				0.997804
				0.99836
				0.997431
				0.99801
				0.99717
				0.997743
				0.997041
				0.997579
				0.997052
				0.997529
				0.997205
				0.997597
				0.997487
				0.99778
				0.997879
				0.998063
				0.998354
				0.998427
				0.998884
				0.99885
				0.99944
				0.999306
				0.999995
				0.999772
				1.00053
				1.00023
				1.00102
				1.00066
				1.00145
				1.00104
				1.00182
				1.00138
				1.00212
				1.00166
				1.00235
				1.00189
				1.00251
				1.00205
				1.00258
				1.00214
				1.00258
				1.00217
				1.00251
				1.00214
				1.00235
				1.00205
				1.00212
				1.00189
				1.00182
				1.00166
				1.00145
				1.00138
				1.00102
				1.00104
				1.00053
				1.00066
				0.999995
				1.00023
				0.99944
				0.999773
				0.998885
				0.999306
				0.998355
				0.99885
				0.997879
				0.998428
				0.997487
				0.998063
				0.997205
				0.99778
				0.997053
				0.997598
				0.997041
				0.997529
				0.99717
				0.997579
				0.997431
				0.997744
				0.997804
				0.998011
				0.998263
				0.99836
				0.998778
				0.998769
				0.999322
				0.999214
				0.999868
				0.999671
				1.00039
				1.00012
				1.00088
				1.00054
				1.00131
				1.00093
				1.00168
				1.00126
				1.00199
				1.00154
				1.0022
				1.00176
				1.00238
				1.0019
				1.00174
				1.00169
				1.00074
				1.0006
				1.00106
				1.00126
				1.00106
				1.00134
				1.00095
				1.00121
				1.0008
				1.00106
				1.00062
				1.00086
				1.00042
				1.00063
				1.00019
				1.00036
				0.999934
				1.00007
				0.999674
				0.999761
				0.999415
				0.999447
				0.999169
				0.999141
				0.998951
				0.99886
				0.998774
				0.99862
				0.998651
				0.998438
				0.998591
				0.998326
				0.998599
				0.998294
				0.998674
				0.998345
				0.998812
				0.998474
				0.999002
				0.998673
				0.999233
				0.998928
				0.99949
				0.999223
				0.999759
				0.999541
				1.00003
				0.999866
				1.00029
				1.00018
				1.00052
				1.00048
				1.00073
				1.00075
				1.00091
				1.00099
				1.00106
				1.00118
				1.00117
				1.00134
				1.00124
				1.00145
				1.00128
				1.00151
				1.00128
				1.00154
				1.00124
				1.00151
				1.00117
				1.00145
				1.00106
				1.00134
				1.00091
				1.00118
				1.00073
				1.00099
				1.00052
				1.00075
				1.00029
				1.00048
				1.00003
				1.00018
				0.99976
				0.999866
				0.99949
				0.999541
				0.999233
				0.999223
				0.999002
				0.998928
				0.998812
				0.998673
				0.998674
				0.998474
				0.998599
				0.998345
				0.998591
				0.998295
				0.998651
				0.998326
				0.998775
				0.998438
				0.998952
				0.99862
				0.99917
				0.99886
				0.999415
				0.999141
				0.999674
				0.999447
				0.999935
				0.999762
				1.00019
				1.00007
				1.00042
				1.00036
				1.00062
				1.00063
				1.0008
				1.00086
				1.00095
				1.00106
				1.00106
				1.00121
				1.00106
				1.00134
				1.00074
				1.00126
				1.00034
				1.00027
				1.00081
				1.00046
				1.00072
				1.00062
				1.00065
				1.00057
				1.00055
				1.00049
				1.00043
				1.0004
				1.00029
				1.0003
				1.00013
				1.00017
				0.999953
				1.00003
				0.999774
				0.999889
				0.999596
				0.99974
				0.999427
				0.999596
				0.999278
				0.999464
				0.999157
				0.999352
				0.999074
				0.999267
				0.999035
				0.999216
				0.999043
				0.999203
				0.999097
				0.999228
				0.999193
				0.999291
				0.999326
				0.999387
				0.999486
				0.999509
				0.999664
				0.999651
				0.999851
				0.999804
				1.00004
				0.99996
				1.00022
				1.00011
				1.00038
				1.00026
				1.00053
				1.00039
				1.00065
				1.0005
				1.00075
				1.00059
				1.00083
				1.00067
				1.00088
				1.00072
				1.00091
				1.00075
				1.00091
				1.00076
				1.00088
				1.00075
				1.00083
				1.00072
				1.00075
				1.00067
				1.00065
				1.00059
				1.00053
				1.0005
				1.00038
				1.00039
				1.00022
				1.00026
				1.00004
				1.00011
				0.999851
				0.99996
				0.999664
				0.999804
				0.999486
				0.999651
				0.999326
				0.999509
				0.999193
				0.999387
				0.999097
				0.999291
				0.999043
				0.999229
				0.999035
				0.999203
				0.999075
				0.999216
				0.999158
				0.999267
				0.999278
				0.999352
				0.999427
				0.999464
				0.999596
				0.999596
				0.999774
				0.99974
				0.999953
				0.999889
				1.00013
				1.00003
				1.00029
				1.00017
				1.00043
				1.0003
				1.00055
				1.0004
				1.00065
				1.00049
				1.00072
				1.00057
				1.00081
				1.00062
				1.00034
				1.00046
				1.0001
				0.999934
				1.00032
				1.0004
				1.00033
				1.00043
				1.00029
				1.00038
				1.00024
				1.00032
				1.00018
				1.00026
				1.00012
				1.00018
				1.00004
				1.0001
				0.999962
				1
				0.999878
				0.999905
				0.999796
				0.999805
				0.999718
				0.999708
				0.999649
				0.999619
				0.999595
				0.999544
				0.999557
				0.999487
				0.999541
				0.999454
				0.999548
				0.999448
				0.999578
				0.999468
				0.999628
				0.999515
				0.999696
				0.999585
				0.999778
				0.999674
				0.999867
				0.999776
				0.999961
				0.999885
				1.00005
				0.999997
				1.00014
				1.00011
				1.00022
				1.00021
				1.00029
				1.0003
				1.00035
				1.00038
				1.0004
				1.00044
				1.00044
				1.00049
				1.00047
				1.00053
				1.00048
				1.00055
				1.00048
				1.00056
				1.00047
				1.00055
				1.00044
				1.00053
				1.0004
				1.00049
				1.00035
				1.00044
				1.00029
				1.00038
				1.00022
				1.0003
				1.00014
				1.00021
				1.00005
				1.00011
				0.999961
				0.999997
				0.999867
				0.999885
				0.999778
				0.999776
				0.999697
				0.999674
				0.999629
				0.999585
				0.999578
				0.999515
				0.999548
				0.999468
				0.999541
				0.999448
				0.999558
				0.999455
				0.999595
				0.999487
				0.99965
				0.999544
				0.999718
				0.999619
				0.999796
				0.999708
				0.999878
				0.999805
				0.999962
				0.999905
				1.00004
				1
				1.00012
				1.0001
				1.00018
				1.00018
				1.00024
				1.00026
				1.00029
				1.00032
				1.00033
				1.00038
				1.00032
				1.00043
				1.0001
				1.0004
				0.999946
				0.999951
				1.00025
				1.00008
				1.0002
				1.00018
				1.00019
				1.00016
				1.00016
				1.00014
				1.00013
				1.00011
				1.00008
				1.00008
				1.00003
				1.00004
				0.999977
				1
				0.99992
				0.999958
				0.999865
				0.999913
				0.999813
				0.99987
				0.999767
				0.999832
				0.999732
				0.999799
				0.999709
				0.999776
				0.999701
				0.999763
				0.999708
				0.999762
				0.999728
				0.999772
				0.999762
				0.999793
				0.999807
				0.999825
				0.999861
				0.999865
				0.99992
				0.999912
				0.999982
				0.999962
				1.00004
				1.00001
				1.0001
				1.00006
				1.00016
				1.00011
				1.00021
				1.00016
				1.00025
				1.0002
				1.00029
				1.00023
				1.00031
				1.00026
				1.00033
				1.00027
				1.00034
				1.00029
				1.00034
				1.00029
				1.00033
				1.00029
				1.00031
				1.00027
				1.00029
				1.00026
				1.00025
				1.00023
				1.00021
				1.0002
				1.00016
				1.00016
				1.0001
				1.00011
				1.00004
				1.00006
				0.999982
				1.00001
				0.99992
				0.999962
				0.999861
				0.999912
				0.999807
				0.999865
				0.999762
				0.999825
				0.999728
				0.999793
				0.999708
				0.999772
				0.999701
				0.999762
				0.999709
				0.999763
				0.999732
				0.999776
				0.999767
				0.9998
				0.999813
				0.999832
				0.999865
				0.999871
				0.99992
				0.999913
				0.999977
				0.999958
				1.00003
				1
				1.00008
				1.00004
				1.00013
				1.00008
				1.00016
				1.00011
				1.00019
				1.00014
				1.0002
				1.00016
				1.00025
				1.00018
				0.999946
				1.00008
				0.999864
				0.999864
				1.0001
				1.00013
				1.0001
				1.00011
				1.00009
				1.0001
				1.00007
				1.00008
				1.00005
				1.00006
				1.00002
				1.00003
				0.999985
				1
				0.99995
				0.999969
				0.999914
				0.999934
				0.999879
				0.999898
				0.999848
				0.999864
				0.999822
				0.999833
				0.999803
				0.999807
				0.999793
				0.999789
				0.999792
				0.999781
				0.999803
				0.999782
				0.999826
				0.999795
				0.99986
				0.999822
				0.999903
				0.999859
				0.99995
				0.999905
				0.999999
				0.999955
				1.00005
				1.00001
				1.00009
				1.00006
				1.00014
				1.00011
				1.00017
				1.00015
				1.00021
				1.00019
				1.00023
				1.00023
				1.00025
				1.00025
				1.00027
				1.00027
				1.00028
				1.00029
				1.00029
				1.0003
				1.00029
				1.0003
				1.00028
				1.0003
				1.00027
				1.00029
				1.00025
				1.00027
				1.00023
				1.00025
				1.00021
				1.00023
				1.00017
				1.00019
				1.00014
				1.00015
				1.00009
				1.00011
				1.00005
				1.00006
				0.999999
				1.00001
				0.99995
				0.999955
				0.999903
				0.999905
				0.999861
				0.999859
				0.999826
				0.999822
				0.999803
				0.999795
				0.999792
				0.999782
				0.999793
				0.999781
				0.999803
				0.999789
				0.999822
				0.999807
				0.999848
				0.999833
				0.999879
				0.999864
				0.999914
				0.999898
				0.99995
				0.999934
				0.999985
				0.999969
				1.00002
				1
				1.00005
				1.00003
				1.00007
				1.00006
				1.00009
				1.00008
				1.0001
				1.0001
				1.0001
				1.00011
				0.999864
				1.00013
			</DataArray>
			<DataArray type="Float64" Name="mach-number" Format="ascii">
				0.0208257
				0.0160201
				0.0670373
				0.0526254
				0.12773
				0.105474
				0.195545
				0.167589
				0.265878
				0.233637
				0.336429
				0.300748
				0.406151
				0.36747
				0.474551
				0.433074
				0.541317
				0.497114
				0.606055
				0.559206
				0.668142
				0.618791
				0.726601
				0.675074
				0.779825
				0.726846
				0.825506
				0.77227
				0.860104
				0.808807
				0.879446
				0.832969
				0.879998
				0.84143
				0.861924
				0.832717
				0.82851
				0.808628
				0.784141
				0.77257
				0.732311
				0.728008
				0.67552
				0.677495
				0.61546
				0.622878
				0.55324
				0.565413
				0.489629
				0.505965
				0.425123
				0.445171
				0.360076
				0.383472
				0.294746
				0.32124
				0.229334
				0.258826
				0.164068
				0.196689
				0.0995643
				0.135807
				0.0394211
				0.0795251
				0.0394179
				0.0449914
				0.0995604
				0.0795221
				0.164064
				0.135803
				0.22933
				0.196685
				0.294741
				0.258822
				0.360071
				0.321236
				0.425118
				0.383467
				0.489623
				0.445166
				0.553234
				0.50596
				0.615454
				0.565407
				0.675513
				0.622872
				0.732303
				0.677489
				0.784133
				0.728001
				0.828501
				0.772562
				0.861913
				0.808619
				0.879987
				0.832707
				0.879435
				0.84142
				0.860094
				0.832959
				0.825497
				0.808798
				0.779816
				0.772262
				0.726594
				0.726839
				0.668136
				0.675067
				0.606049
				0.618784
				0.541311
				0.5592
				0.474546
				0.497109
				0.406146
				0.433069
				0.336424
				0.367465
				0.265872
				0.300743
				0.19554
				0.233631
				0.127725
				0.167584
				0.0670327
				0.105469
				0.0208232
				0.0526216
				0.0854454
				0.0494548
				0.133278
				0.0905696
				0.18079
				0.140159
				0.228812
				0.192549
				0.277915
				0.246401
				0.3281
				0.301286
				0.378977
				0.356636
				0.430012
				0.411921
				0.480607
				0.466649
				0.530083
				0.520302
				0.577615
				0.572244
				0.622139
				0.621634
				0.662209
				0.667287
				0.695886
				0.70752
				0.720691
				0.740004
				0.733963
				0.761758
				0.733827
				0.769868
				0.720348
				0.76302
				0.695471
				0.742445
				0.661881
				0.710959
				0.622014
				0.671512
				0.577758
				0.626463
				0.530496
				0.577536
				0.481236
				0.525958
				0.430741
				0.47261
				0.379635
				0.418152
				0.328509
				0.363126
				0.27805
				0.308053
				0.229271
				0.253578
				0.183986
				0.200762
				0.14581
				0.151868
				0.121243
				0.112482
				0.121242
				0.0908725
				0.145808
				0.11248
				0.183983
				0.151865
				0.229268
				0.200759
				0.278047
				0.253574
				0.328505
				0.30805
				0.379631
				0.363122
				0.430737
				0.418147
				0.481231
				0.472605
				0.530491
				0.525953
				0.577752
				0.577531
				0.622008
				0.626457
				0.661875
				0.671505
				0.695464
				0.710952
				0.72034
				0.742437
				0.733819
				0.763011
				0.733955
				0.769859
				0.720683
				0.761749
				0.695878
				0.739996
				0.662202
				0.707513
				0.622133
				0.66728
				0.577609
				0.621627
				0.530077
				0.572238
				0.480602
				0.520297
				0.430007
				0.466644
				0.378973
				0.411916
				0.328096
				0.356632
				0.277911
				0.301282
				0.228809
				0.246397
				0.180787
				0.192545
				0.133274
				0.140156
				0.0854419
				0.0905658
				0.12529
				0.135614
				0.170639
				0.170326
				0.208959
				0.206223
				0.245891
				0.238617
				0.284064
				0.271377
				0.32419
				0.306237
				0.36602
				0.343335
				0.408898
				0.382109
				0.452036
				0.421758
				0.49459
				0.461415
				0.535639
				0.500167
				0.574103
				0.537001
				0.608639
				0.570722
				0.637561
				0.599877
				0.658837
				0.622748
				0.670404
				0.637496
				0.670852
				0.642608
				0.660125
				0.637475
				0.639538
				0.622723
				0.611101
				0.599872
				0.576832
				0.570753
				0.538421
				0.537053
				0.497192
				0.50017
				0.454172
				0.461218
				0.410192
				0.421106
				0.365986
				0.38062
				0.322302
				0.340529
				0.280037
				0.301686
				0.24045
				0.265173
				0.205463
				0.23249
				0.177981
				0.205737
				0.162444
				0.187719
				0.162443
				0.181148
				0.17798
				0.187719
				0.205461
				0.205735
				0.240448
				0.232488
				0.280035
				0.265171
				0.322298
				0.301683
				0.365983