<VTKFile type="UnstructuredGrid" version="0.1" byte_order="LittleEndian">
<UnstructuredGrid>
	<Piece NumberOfPoints="1088" NumberOfCells="2048">
		<CellData Scalars="density" Vectors="velocity">
			<DataArray type="Float64" Name="density" Format="ascii">
				1.04167
				1.03862
				1.0416
				1.03837
				1.03834
				1.03697
				1.0307
				1.03276
				1.01962
				1.02534
				1.00287
				1.0131
				0.980596
				0.995373
				0.954245
				0.973294
				0.924922
				0.947884
				0.893805
				0.920217
				0.862085
				0.891427
				0.830995
				0.862719
				0.80193
				0.835437
				0.776574
				0.811091
				0.757451
				0.791255
				0.746632
				0.778281
				0.748727
				0.774034
				0.758454
				0.783155
				0.777096
				0.79315
				0.80161
				0.812866
				0.830064
				0.837613
				0.860743
				0.865096
				0.892315
				0.893817
				0.923604
				0.922609
				0.953509
				0.950814
				0.981371
				0.977672
				1.00657
				1.00223
				1.02844
				1.02385
				1.04646
				1.0421
				1.06024
				1.05662
				1.06961
				1.06701
				1.07417
				1.07338
				1.07417
				1.07527
				1.06961
				1.07338
				1.06024
				1.06701
				1.04646
				1.05662
				1.02844
				1.0421
				1.00657
				1.02385
				0.981371
				1.00223
				0.953509
				0.977672
				0.923605
				0.950814
				0.892315
				0.922609
				0.860744
				0.893818
				0.830065
				0.865096
				0.801611
				0.837614
				0.777097
				0.812867
				0.758455
				0.793151
				0.748728
				0.783156
				0.746633
				0.774035
				0.757452
				0.778282
				0.776574
				0.791255
				0.801931
				0.811092
				0.830995
				0.835438
				0.862086
				0.86272
				0.893805
				0.891428
				0.924923
				0.920218
				0.954245
				0.947884
				0.980597
				0.973294
				1.00287
				0.995374
				1.01962
				1.0131
				1.0307
				1.02534
				1.03834
				1.03276
				1.0416
				1.03697
				1.04167
				1.03837
				1.03883
				1.04418
				1.03915
				1.04573
				1.03912
				1.0462
				1.03559
				1.04253
				1.02765
				1.03523
				1.01547
				1.02323
				0.999768
				1.00759
				0.981128
				0.988665
				0.960256
				0.967014
				0.937864
				0.943403
				0.914818
				0.918663
				0.892132
				0.893703
				0.870974
				0.869588
				0.852794
				0.847594
				0.839292
				0.829329
				0.832792
				0.817062
				0.833171
				0.811904
				0.839593
				0.815883
				0.853846
				0.82731
				0.871878
				0.84435
				0.892711
				0.865286
				0.915086
				0.888681
				0.937968
				0.913244
				0.960506
				0.937924
				0.981996
				0.961922
				1.00192
				0.984548
				1.01983
				1.00523
				1.0353
				1.02353
				1.04798
				1.03903
				1.05769
				1.0514
				1.06431
				1.06034
				1.06773
				1.06575
				1.06773
				1.0675
				1.06431
				1.06575
				1.05769
				1.06034
				1.04798
				1.0514
				1.0353
				1.03903
				1.01983
				1.02353
				1.00192
				1.00523
				0.981997
				0.984549
				0.960507
				0.961922
				0.937968
				0.937924
				0.915086
				0.913245
				0.892712
				0.888682
				0.871878
				0.865287
				0.853847
				0.84435
				0.839593
				0.82731
				0.833172
				0.815884
				0.832792
				0.811905
				0.839293
				0.817062
				0.852795
				0.829329
				0.870975
				0.847595
				0.892132
				0.869589
				0.914819
				0.893703
				0.937865
				0.918663
				0.960256
				0.943404
				0.981128
				0.967015
				0.999768
				0.988665
				1.01547
				1.00759
				1.02765
				1.02323
				1.03559
				1.03523
				1.03912
				1.04253
				1.03915
				1.0462
				1.03883
				1.04573
				1.04295
				1.03785
				1.04607
				1.03905
				1.04455
				1.04053
				1.03727
				1.03735
				1.02919
				1.03185
				1.01815
				1.02304
				1.00476
				1.01173
				0.989277
				0.998366
				0.972145
				0.983331
				0.95388
				0.967086
				0.935104
				0.950173
				0.916565
				0.933236
				0.89921
				0.917087
				0.884226
				0.902713
				0.872876
				0.891277
				0.866651
				0.883765
				0.86643
				0.881138
				0.871625
				0.883963
				0.882261
				0.891799
				0.896779
				0.903578
				0.913846
				0.918183
				0.932348
				0.934503
				0.951363
				0.951633
				0.970122
				0.96884
				0.987997
				0.985524
				1.00453
				1.00118
				1.01935
				1.0154
				1.03216
				1.02787
				1.04268
				1.03835
				1.05075
				1.04666
				1.05627
				1.05267
				1.05907
				1.05632
				1.05907
				1.05755
				1.05627
				1.05632
				1.05075
				1.05267
				1.04268
				1.04666
				1.03216
				1.03835
				1.01935
				1.02787
				1.00453
				1.0154
				0.987997
				1.00118
				0.970123
				0.985524
				0.951363
				0.96884
				0.932349
				0.951633
				0.913846
				0.934504
				0.896779
				0.918183
				0.882262
				0.903579
				0.871626
				0.891799
				0.866431
				0.883963
				0.866651
				0.881139
				0.872877
				0.883765
				0.884226
				0.891277
				0.899211
				0.902713
				0.916566
				0.917087
				0.935105
				0.933237
				0.953881
				0.950173
				0.972145
				0.967087
				0.989277
				0.983331
				1.00476
				0.998366
				1.01815
				1.01173
				1.02919
				1.02304
				1.03727
				1.03185
				1.04455
				1.03735
				1.04607
				1.04053
				1.04295
				1.03905
				1.0347
				1.03674
				1.03588
				1.03989
				1.03515
				1.04045
				1.03057
				1.0353
				1.02407
				1.02973
				1.01604
				1.02191
				1.00682
				1.01259
				0.996554
				1.0019
				0.985452
				0.990012
				0.973753
				0.977203
				0.961813
				0.963835
				0.950145
				0.950399
				0.939407
				0.937529
				0.930354
				0.926005
				0.923774
				0.91674
				0.920362
				0.910611
				0.920506
				0.908257
				0.9242
				0.910009
				0.93104
				0.915801
				0.940358
				0.924839
				0.951385
				0.936275
				0.963399
				0.949249
				0.975786
				0.962981
				0.988032
				0.976811
				0.999709
				0.990215
				1.01047
				1.00279
				1.02005
				1.01423
				1.02826
				1.02426
				1.03495
				1.03271
				1.04003
				1.03943
				1.04345
				1.04432
				1.04516
				1.0473
				1.04516
				1.0483
				1.04345
				1.0473
				1.04003
				1.04432
				1.03495
				1.03943
				1.02826
				1.03271
				1.02005
				1.02426
				1.01047
				1.01423
				0.999709
				1.00279
				0.988032
				0.990216
				0.975787
				0.976811
				0.9634
				0.962981
				0.951385
				0.94925
				0.940358
				0.936275
				0.93104
				0.924839
				0.9242
				0.915801
				0.920506
				0.91001
				0.920363
				0.908257
				0.923775
				0.910611
				0.930354
				0.91674
				0.939407
				0.926005
				0.950146
				0.937529
				0.961813
				0.9504
				0.973753
				0.963835
				0.985453
				0.977204
				0.996554
				0.990012
				1.00682
				1.0019
				1.01604
				1.01259
				1.02407
				1.02191
				1.03057
				1.02973
				1.03515
				1.0353
				1.03588
				1.04045
				1.0347
				1.03989
				1.03067
				1.02804
				1.03337
				1.0288
				1.03088
				1.02938
				1.02648
				1.02632
				1.02127
				1.02161
				1.01497
				1.01618
				1.00775
				1.01005
				0.999709
				1.00328
				0.990988
				0.995939
				0.981802
				0.988109
				0.972459
				0.979993
				0.963362
				0.971908
				0.955008
				0.964276
				0.947964
				0.957587
				0.942807
				0.952358
				0.940033
				0.94905
				0.939961
				0.947994
				0.942614
				0.9493
				0.9477
				0.952839
				0.954765
				0.958293
				0.96324
				0.965206
				0.972556
				0.973092
				0.9822
				0.981494
				0.991746
				0.990007
				1.00085
				0.998286
				1.00925
				1.00605
				1.01674
				1.01307
				1.02318
				1.01919
				1.02844
				1.02431
				1.03245
				1.02833
				1.03516
				1.03124
				1.03653
				1.03299
				1.03653
				1.03357
				1.03516
				1.03299
				1.03246
				1.03124
				1.02844
				1.02833
				1.02318
				1.02431
				1.01674
				1.01919
				1.00925
				1.01307
				1.00085
				1.00605
				0.991746
				0.998286
				0.982201
				0.990007
				0.972556
				0.981494
				0.96324
				0.973092
				0.954765
				0.965206
				0.947701
				0.958293
				0.942614
				0.95284
				0.939961
				0.9493
				0.940034
				0.947994
				0.942807
				0.94905
				0.947964
				0.952358
				0.955008
				0.957587
				0.963362
				0.964276
				0.972459
				0.971908
				0.981803
				0.979993
				0.990989
				0.98811
				0.999709
				0.99594
				1.00775
				1.00328
				1.01497
				1.01005
				1.02127
				1.01618
				1.02648
				1.02161
				1.03088
				1.02632
				1.03337
				1.02938
				1.03067
				1.0288
				1.01988
				1.02029
				1.02087
				1.02359
				1.02013
				1.02397
				1.0172
				1.02103
				1.01383
				1.01781
				1.01
				1.01384
				1.00574
				1.00919
				1.00104
				1.00396
				0.995948
				0.998237
				0.990605
				0.992156
				0.985205
				0.985906
				0.980003
				0.979738
				0.975302
				0.973954
				0.971423
				0.968903
				0.96867
				0.964948
				0.967281
				0.96242
				0.967384
				0.961557
				0.968973
				0.962452
				0.97191
				0.965028
				0.975959
				0.969069
				0.980829
				0.974247
				0.986213
				0.980198
				0.991825
				0.98656
				0.997406
				0.993013
				1.00274
				0.999289
				1.00765
				1.00518
				1.01201
				1.01051
				1.01573
				1.01518
				1.01876
				1.01909
				1.02105
				1.02218
				1.02258
				1.02442
				1.02335
				1.02577
				1.02335
				1.02622
				1.02258
				1.02577
				1.02105
				1.02442
				1.01876
				1.02218
				1.01573
				1.01909
				1.01201
				1.01518
				1.00765
				1.01051
				1.00274
				1.00518
				0.997407
				0.999289
				0.991825
				0.993013
				0.986214
				0.986561
				0.980829
				0.980198
				0.97596
				0.974248
				0.97191
				0.969069
				0.968973
				0.965029
				0.967384
				0.962452
				0.967282
				0.961558
				0.96867
				0.96242
				0.971423
				0.964948
				0.975302
				0.968903
				0.980003
				0.973954
				0.985205
				0.979738
				0.990606
				0.985907
				0.995948
				0.992156
				1.00104
				0.998238
				1.00574
				1.00396
				1.01
				1.00919
				1.01383
				1.01384
				1.0172
				1.01781
				1.02013
				1.02103
				1.02087
				1.02397
				1.01988
				1.02359
				1.01482
				1.01341
				1.0169
				1.01395
				1.01549
				1.01396
				1.01353
				1.0126
				1.01118
				1.01066
				1.00831
				1.00839
				1.00506
				1.00581
				1.00145
				1.0029
				0.997575
				0.999693
				0.993538
				0.996286
				0.989496
				0.992799
				0.985632
				0.989381
				0.982158
				0.986211
				0.979296
				0.983486
				0.977258
				0.981396
				0.976213
				0.980102
				0.976257
				0.97971
				0.977393
				0.980257
				0.979533
				0.981699
				0.982508
				0.983923
				0.986104
				0.986769
				0.990091
				0.990049
				0.994247
				0.993574
				0.998378
				0.997165
				1.00233
				1.00067
				1.00596
				1.00396
				1.0092
				1.00693
				1.01198
				1.00952
				1.01423
				1.01168
				1.01595
				1.01337
				1.0171
				1.0146
				1.01768
				1.01533
				1.01768
				1.01558
				1.0171
				1.01533
				1.01595
				1.0146
				1.01423
				1.01337
				1.01198
				1.01168
				1.0092
				1.00952
				1.00596
				1.00693
				1.00233
				1.00396
				0.998378
				1.00067
				0.994247
				0.997166
				0.990091
				0.993574
				0.986104
				0.990049
				0.982508
				0.986769
				0.979533
				0.983923
				0.977393
				0.981699
				0.976257
				0.980257
				0.976213
				0.97971
				0.977258
				0.980102
				0.979296
				0.981397
				0.982158
				0.983487
				0.985632
				0.986211
				0.989496
				0.989381
				0.993538
				0.992799
				0.997575
				0.996286
				1.00146
				0.999693
				1.00506
				1.0029
				1.00831
				1.00581
				1.01118
				1.00839
				1.01353
				1.01066
				1.01549
				1.0126
				1.0169
				1.01396
				1.01482
				1.01395
				1.00803
				1.00824
				1.00872
				1.01007
				1.00848
				1.01048
				1.00743
				1.00935
				1.00617
				1.00804
				1.00471
				1.0064
				1.00298
				1.0045
				1.00105
				1.00234
				0.998962
				0.999968
				0.9968
				0.997463
				0.994645
				0.994912
				0.992601
				0.992428
				0.990783
				0.990134
				0.989305
				0.988167
				0.988273
				0.986657
				0.987764
				0.985719
				0.987819
				0.98543
				0.988441
				0.985818
				0.989582
				0.986856
				0.99116
				0.988466
				0.993069
				0.990531
				0.995189
				0.992915
				0.997407
				0.995478
				0.999618
				0.998087
				1.00173
				1.00063
				1.00368
				1.00302
				1.00541
				1.00518
				1.00688
				1.00706
				1.00808
				1.00864
				1.00898
				1.00988
				1.00959
				1.01078
				1.0099
				1.01132
				1.0099
				1.0115
				1.00959
				1.01132
				1.00898
				1.01078
				1.00808
				1.00988
				1.00688
				1.00864
				1.00541
				1.00706
				1.00368
				1.00518
				1.00173
				1.00302
				0.999618
				1.00063
				0.997408
				0.998087
				0.99519
				0.995478
				0.993069
				0.992916
				0.991161
				0.990531
				0.989582
				0.988466
				0.988441
				0.986856
				0.987819
				0.985818
				0.987764
				0.98543
				0.988273
				0.985719
				0.989306
				0.986657
				0.990783
				0.988167
				0.992601
				0.990134
				0.994645
				0.992428
				0.9968
				0.994912
				0.998962
				0.997463
				1.00105
				0.999968
				1.00298
				1.00234
				1.00471
				1.0045
				1.00617
				1.0064
				1.00743
				1.00804
				1.00848
				1.00935
				1.00872
				1.01048
				1.00803
				1.01007
				1.00541
				1.0047
				1.00672
				1.00516
				1.00639
				1.0054
				1.00547
				1.00496
				1.00457
				1.00426
				1.00348
				1.00344
				1.00221
				1.00245
				1.00081
				1.00131
				0.99931
				1.00008
				0.99776
				0.998794
				0.996221
				0.997486
				0.994766
				0.99622
				0.993472
				0.995059
				0.992421
				0.994071
				0.991685
				0.993318
				0.991322
				0.992856
				0.991363
				0.992719
				0.991807
				0.992925
				0.992621
				0.99346
				0.993749
				0.994287
				0.995113
				0.995348
				0.996631
				0.996576
				0.998218
				0.997895
				0.999799
				0.999241
				1.00131
				1.00055
				1.0027
				1.00178
				1.00394
				1.0029
				1.005
				1.00387
				1.00586
				1.00468
				1.00651
				1.00532
				1.00695
				1.00578
				1.00717
				1.00605
				1.00717
				1.00614
				1.00695
				1.00605
				1.00651
				1.00578
				1.00586
				1.00532
				1.005
				1.00468
				1.00394
				1.00387
				1.0027
				1.0029
				1.00131
				1.00178
				0.999799
				1.00055
				0.998218
				0.999241
				0.996631
				0.997896
				0.995113
				0.996576
				0.993749
				0.995349
				0.992621
				0.994287
				0.991807
				0.99346
				0.991363
				0.992925
				0.991322
				0.99272
				0.991685
				0.992856
				0.992421
				0.993318
				0.993472
				0.994071
				0.994766
				0.995059
				0.996221
				0.99622
				0.99776
				0.997486
				0.99931
				0.998794
				1.00081
				1.00008
				1.00221
				1.00131
				1.00348
				1.00245
				1.00457
				1.00344
				1.00547
				1.00426
				1.00639
				1.00496
				1.00672
				1.0054
				1.00541
				1.00516
				1.00255
				1.00254
				1.00317
				1.0036
				1.00295
				1.00393
				1.00262
				1.00336
				1.00222
				1.00292
				1.0017
				1.00235
				1.0011
				1.00167
				1.00044
				1.0009
				0.999713
				1.00006
				0.998958
				0.99917
				0.998203
				0.998261
				0.997487
				0.997374
				0.996849
				0.996556
				0.996329
				0.995855
				0.995964
				0.995322
				0.99578
				0.994994
				0.995796
				0.9949
				0.996013
				0.995046
				0.996418
				0.995424
				0.996983
				0.996007
				0.997669
				0.996756
				0.998431
				0.997623
				0.999227
				0.998556
				1.00002
				0.99951
				1.00078
				1.00044
				1.00148
				1.00131
				1.0021
				1.0021
				1.00264
				1.00279
				1.00307
				1.00337
				1.0034
				1.00382
				1.00362
				1.00415
				1.00373
				1.00435
				1.00373
				1.00441
				1.00362
				1.00435
				1.0034
				1.00415
				1.00307
				1.00382
				1.00264
				1.00337
				1.0021
				1.00279
				1.00148
				1.0021
				1.00078
				1.00131
				1.00002
				1.00044
				0.999227
				0.99951
				0.998431
				0.998556
				0.997669
				0.997623
				0.996983
				0.996756
				0.996418
				0.996008
				0.996013
				0.995424
				0.995796
				0.995046
				0.99578
				0.9949
				0.995964
				0.994994
				0.996329
				0.995322
				0.996849
				0.995856
				0.997487
				0.996556
				0.998203
				0.997374
				0.998958
				0.998261
				0.999713
				0.99917
				1.00044
				1.00006
				1.0011
				1.0009
				1.0017
				1.00167
				1.00222
				1.00235
				1.00262
				1.00292
				1.00295
				1.00336
				1.00317
				1.00393
				1.00255
				1.0036
				1.00152
				1.00123
				1.00235
				1.00155
				1.00212
				1.0018
				1.00181
				1.00157
				1.00155
				1.0014
				1.0012
				1.00115
				1.0008
				1.00085
				1.00034
				1.00051
				0.999835
				1.00011
				0.999305
				0.999674
				0.998771
				0.999226
				0.998263
				0.998786
				0.997809
				0.998379
				0.997441
				0.998032
				0.997185
				0.997768
				0.997061
				0.997606
				0.997078
				0.997558
				0.997236
				0.99763
				0.997525
				0.997817
				0.997923
				0.998107
				0.998406
				0.99848
				0.998943
				0.99891
				0.999505
				0.999373
				1.00007
				0.999845
				1.0006
				1.00031
				1.0011
				1.00074
				1.00154
				1.00113
				1.00192
				1.00148
				1.00222
				1.00176
				1.00245
				1.00199
				1.00261
				1.00215
				1.00269
				1.00225
				1.00269
				1.00228
				1.00261
				1.00225
				1.00245
				1.00215
				1.00222
				1.00199
				1.00192
				1.00176
				1.00154
				1.00148
				1.0011
				1.00113
				1.0006
				1.00074
				1.00007
				1.00031
				0.999505
				0.999845
				0.998943
				0.999373
				0.998406
				0.99891
				0.997924
				0.99848
				0.997525
				0.998107
				0.997236
				0.997817
				0.997078
				0.99763
				0.997061
				0.997558
				0.997185
				0.997606
				0.997441
				0.997768
				0.997809
				0.998032
				0.998263
				0.998379
				0.998771
				0.998786
				0.999305
				0.999226
				0.999835
				0.999675
				1.00034
				1.00011
				1.0008
				1.00051
				1.0012
				1.00085
				1.00155
				1.00115
				1.00181
				1.0014
				1.00212
				1.00157
				1.00235
				1.0018
				1.00152
				1.00155
				1.00045
				1.00039
				1.00085
				1.00091
				1.00085
				1.00122
				1.00078
				1.00099
				1.00072
				1.00092
				1.0006
				1.00078
				1.00042
				1.00059
				1.00021
				1.00035
				0.999959
				1.00008
				0.999696
				0.999772
				0.999432
				0.999458
				0.999183
				0.999152
				0.998963
				0.998869
				0.998787
				0.99863
				0.998666
				0.998449
				0.99861
				0.998341
				0.998623
				0.998314
				0.998704
				0.998371
				0.998849
				0.998508
				0.999048
				0.998715
				0.999286
				0.998978
				0.999551
				0.999281
				0.999829
				0.999608
				1.0001
				0.999941
				1.00037
				1.00027
				1.00061
				1.00057
				1.00083
				1.00085
				1.00101
				1.00109
				1.00116
				1.00129
				1.00128
				1.00145
				1.00135
				1.00156
				1.00139
				1.00163
				1.00139
				1.00165
				1.00135
				1.00163
				1.00128
				1.00156
				1.00116
				1.00145
				1.00101
				1.00129
				1.00083
				1.00109
				1.00061
				1.00085
				1.00037
				1.00057
				1.0001
				1.00027
				0.999829
				0.999941
				0.999551
				0.999608
				0.999286
				0.999281
				0.999048
				0.998978
				0.998849
				0.998715
				0.998704
				0.998508
				0.998623
				0.998371
				0.99861
				0.998314
				0.998666
				0.998341
				0.998787
				0.998449
				0.998963
				0.99863
				0.999183
				0.998869
				0.999432
				0.999152
				0.999696
				0.999458
				0.999959
				0.999772
				1.00021
				1.00008
				1.00042
				1.00035
				1.0006
				1.00059
				1.00072
				1.00078
				1.00078
				1.00092
				1.00085
				1.00099
				1.00085
				1.00122
				1.00045
				1.00091
				1.00015
				1.00009
				1.00061
				1.00024
				1.00061
				1.00046
				1.00056
				1.00046
				1.00053
				1.00047
				1.00043
				1.00042
				1.0003
				1.00032
				1.00014
				1.00019
				0.999959
				1.00004
				0.999775
				0.999892
				0.999594
				0.99974
				0.999425
				0.999594
				0.999276
				0.999463
				0.999159
				0.999353
				0.99908
				0.999273
				0.999046
				0.999227
				0.999061
				0.999219
				0.999122
				0.999251
				0.999226
				0.999321
				0.999367
				0.999424
				0.999535
				0.999553
				0.999721
				0.999702
				0.999915
				0.999861
				1.00011
				1.00002
				1.00029
				1.00018
				1.00046
				1.00033
				1.00061
				1.00046
				1.00074
				1.00058
				1.00084
				1.00067
				1.00092
				1.00075
				1.00097
				1.0008
				1.001
				1.00084
				1.001
				1.00085
				1.00097
				1.00084
				1.00092
				1.0008
				1.00084
				1.00075
				1.00074
				1.00067
				1.00061
				1.00058
				1.00046
				1.00046
				1.00029
				1.00033
				1.00011
				1.00018
				0.999915
				1.00002
				0.999721
				0.999861
				0.999535
				0.999702
				0.999367
				0.999553
				0.999226
				0.999424
				0.999122
				0.999321
				0.999061
				0.999251
				0.999046
				0.999219
				0.99908
				0.999227
				0.999159
				0.999273
				0.999276
				0.999353
				0.999425
				0.999463
				0.999594
				0.999594
				0.999775
				0.99974
				0.999959
				0.999892
				1.00014
				1.00004
				1.0003
				1.00019
				1.00043
				1.00032
				1.00053
				1.00042
				1.00056
				1.00047
				1.00061
				1.00046
				1.00061
				1.00046
				1.00015
				1.00024
				0.999848
				0.999779
				1.0001
				1.00003
				1.00024
				1.00032
				1.00028
				1.00032
				1.00026
				1.00032
				1.0002
				1.00028
				1.00013
				1.0002
				1.00005
				1.00011
				0.999968
				1.00001
				0.999885
				0.999909
				0.999803
				0.999807
				0.999727
				0.999709
				0.999661
				0.999621
				0.999609
				0.999549
				0.999577
				0.999497
				0.999566
				0.99947
				0.999578
				0.99947
				0.999614
				0.999497
				0.999671
				0.999551
				0.999745
				0.999629
				0.999833
				0.999725
				0.999928
				0.999833
				1.00003
				0.999949
				1.00013
				1.00007
				1.00022
				1.00018
				1.0003
				1.00029
				1.00038
				1.00038
				1.00044
				1.00047
				1.0005
				1.00054
				1.00054
				1.00059
				1.00056
				1.00063
				1.00058
				1.00065
				1.00058
				1.00066
				1.00056
				1.00065
				1.00054
				1.00063
				1.0005
				1.00059
				1.00044
				1.00054
				1.00038
				1.00047
				1.0003
				1.00038
				1.00022
				1.00029
				1.00013
				1.00018
				1.00003
				1.00007
				0.999928
				0.999949
				0.999833
				0.999833
				0.999745
				0.999725
				0.999671
				0.999629
				0.999614
				0.999551
				0.999578
				0.999497
				0.999566
				0.99947
				0.999577
				0.99947
				0.999609
				0.999497
				0.999661
				0.999549
				0.999727
				0.999621
				0.999803
				0.999709
				0.999885
				0.999807
				0.999968
				0.999909
				1.00005
				1.00001
				1.00013
				1.00011
				1.0002
				1.0002
				1.00026
				1.00028
				1.00028
				1.00032
				1.00024
				1.00032
				1.0001
				1.00032
				0.999848
				1.00003
				0.999776
				0.999636
				1.00009
				0.999856
				1.00019
				1.00012
				1.0002
				1.00019
				1.00018
				1.00019
				1.00013
				1.00015
				1.00008
				1.0001
				1.00002
				1.00006
				0.999962
				1.00001
				0.999903
				0.999956
				0.999848
				0.999906
				0.999797
				0.99986
				0.999756
				0.99982
				0.999725
				0.999788
				0.999708
				0.999767
				0.999705
				0.999759
				0.999718
				0.999763
				0.999746
				0.99978
				0.999788
				0.999808
				0.99984
				0.999847
				0.999901
				0.999895
				0.999966
				0.999947
				1.00003
				1
				1.0001
				1.00006
				1.00016
				1.00011
				1.00022
				1.00016
				1.00027
				1.00021
				1.00031
				1.00025
				1.00034
				1.00028
				1.00037
				1.0003
				1.00039
				1.00032
				1.0004
				1.00033
				1.0004
				1.00034
				1.00039
				1.00033
				1.00037
				1.00032
				1.00034
				1.0003
				1.00031
				1.00028
				1.00027
				1.00025
				1.00022
				1.00021
				1.00016
				1.00016
				1.0001
				1.00011
				1.00003
				1.00006
				0.999966
				1
				0.999901
				0.999947
				0.99984
				0.999895
				0.999788
				0.999847
				0.999746
				0.999808
				0.999718
				0.99978
				0.999705
				0.999763
				0.999708
				0.999759
				0.999725
				0.999767
				0.999756
				0.999788
				0.999797
				0.99982
				0.999848
				0.99986
				0.999903
				0.999906
				0.999962
				0.999956
				1.00002
				1.00001
				1.00008
				1.00006
				1.00013
				1.0001
				1.00018
				1.00015
				1.0002
				1.00019
				1.00019
				1.00019
				1.00009
				1.00012
				0.999776
				0.999855
				0.99964
				0.99961
				1
				0.999861
				1.00014
				1.00009
				1.00011
				1.00009
				1.00007
				1.00006
				1.00004
				1.00004
				0.999999
				1.00001
				0.999958
				0.999979
				0.999917
				0.999946
				0.999878
				0.99991
				0.999842
				0.999875
				0.999813
				0.999843
				0.999793
				0.999816
				0.999783
				0.999796
				0.999786
				0.999787
				0.9998
				0.99979
				0.999826
				0.999805
				0.999863
				0.999832
				0.999909
				0.999869
				0.999961
				0.999917
				1.00002
				0.99997
				1.00007
				1.00003
				1.00013
				1.00009
				1.00018
				1.00014
				1.00023
				1.0002
				1.00027
				1.00025
				1.00031
				1.00029
				1.00034
				1.00033
				1.00036
				1.00036
				1.00038
				1.00039
				1.00039
				1.0004
				1.0004
				1.00041
				1.0004
				1.00042
				1.00039
				1.00041
				1.00038
				1.0004
				1.00036
				1.00039
				1.00034
				1.00036
				1.00031
				1.00033
				1.00027
				1.00029
				1.00023
				1.00025
				1.00018
				1.0002
				1.00013
				1.00014
				1.00007
				1.00009
				1.00002
				1.00003
				0.999961
				0.99997
				0.999909
				0.999917
				0.999863
				0.99987
				0.999826
				0.999832
				0.9998
				0.999805
				0.999786
				0.99979
				0.999783
				0.999787
				0.999793
				0.999796
				0.999813
				0.999816
				0.999842
				0.999843
				0.999878
				0.999875
				0.999917
				0.99991
				0.999958
				0.999946
				0.999999
				0.999979
				1.00004
				1.00001
				1.00007
				1.00004
				1.00011
				1.00006
				1.00014
				1.00009
				1
				1.00009
				0.99964
				0.999861
			</DataArray>
			<DataArray type="Float64" Name="mach-number" Format="ascii">
				0.0145231
				0.0147653
				0.0445677
				0.0351077
				0.0933544
				0.07816
				0.154037
				0.133488
				0.221903
				0.196267
				0.293269
				0.263419
				0.365657
				0.3324
				0.437592
				0.401356
				0.508067
				0.46908
				0.576248
				0.534677
				0.641323
				0.597322
				0.702349
				0.656111
				0.757934
				0.709827
				0.805969
				0.756777
				0.842706
				0.794804
				0.864866
				0.82033
				0.865886
				0.832696
				0.850342
				0.825536
				0.82102
				0.80284
				0.77807
				0.768314
				0.72717
				0.724513
				0.67106
				0.674561
				0.611564
				0.620485
				0.550036
				0.563696
				0.487329
				0.50483
				0.423576
				0.444293
				0.359048
				0.382696
				0.294168
				0.320623
				0.229169
				0.258415
				0.164291
				0.196476
				0.100188
				0.135848
				0.0410872
				0.0801927
				0.0410867
				0.0497187
				0.100188
				0.0801923
				0.16429
				0.135847
				0.229168
				0.196476
				0.294167
				0.258414
				0.359047
				0.320623
				0.423576
				0.382695
				0.487329
				0.444292
				0.550035
				0.50483
				0.611563
				0.563695
				0.671059
				0.620484
				0.727168
				0.67456
				0.778069
				0.724512
				0.821018
				0.768313
				0.85034
				0.802838
				0.865884
				0.825534
				0.864864
				0.832695
				0.842704
				0.820329
				0.805968
				0.794803
				0.757932
				0.756776
				0.702348
				0.709826
				0.641322
				0.656109
				0.576247
				0.597321
				0.508066
				0.534676
				0.437591
				0.469079
				0.365656
				0.401355
				0.293267
				0.332399
				0.221902
				0.263418
				0.154036
				0.196266
				0.0933538
				0.133488
				0.0445674
				0.0781594
				0.0145231
				0.0351074
				0.0578108
				0.0364658
				0.104695
				0.0616524
				0.159419
				0.112508
				0.213428
				0.16779
				0.267555
				0.225659
				0.321536
				0.284596
				0.375233
				0.343735
				0.428298
				0.402418
				0.480271
				0.460011
				0.530645
				0.515929
				0.578754
				0.569596
				0.623619
				0.620249
				0.66383
				0.666778
				0.697436
				0.707603
				0.722265
				0.740503
				0.73481
				0.762212
				0.733444
				0.771
				0.718816
				0.763197
				0.693314
				0.740594
				0.660167
				0.709191
				0.620808
				0.67028
				0.576993
				0.625675
				0.530052
				0.577094
				0.480937
				0.525767
				0.430423
				0.472485
				0.37924
				0.417933
				0.328034
				0.362784
				0.277499
				0.307612
				0.22866
				0.25306
				0.183301
				0.20019
				0.144848
				0.151194
				0.120933
				0.111175
				0.120933
				0.094368
				0.144847
				0.111174
				0.183301
				0.151194
				0.228659
				0.200189
				0.277499
				0.253059
				0.328034
				0.307612
				0.37924
				0.362784
				0.430423
				0.417932
				0.480936
				0.472484
				0.530052
				0.525766
				0.576992
				0.577093
				0.620806
				0.625673
				0.660166
				0.670278
				0.693313
				0.70919
				0.718814
				0.740593
				0.733443
				0.763195
				0.734809
				0.770999
				0.722264
				0.762211
				0.697435
				0.740502
				0.663829
				0.707602
				0.623618
				0.666777
				0.578753
				0.620247
				0.530644
				0.569595
				0.48027
				0.515929
				0.428297
				0.46001
				0.375232
				0.402418
				0.321535
				0.343734
				0.267555
				0.284595
				0.213427
				0.225659
				0.159418
				0.167789
				0.104694
				0.112507
				0.0578104
				0.0616519
				0.0923836
				0.101883
				0.144211
				0.135992
				0.198385
				0.192911
				0.245038
				0.238305
				0.288495
				0.278169
				0.330579
				0.315484
				0.372446
				0.352321
				0.414297
				0.389406
				0.455954
				0.426842
				0.496983
				0.464339
				0.536685
				0.501255
				0.574069
				0.53666
				0.607781
				0.569345
				0.636056
				0.597783
				0.656911
				0.620113
				0.667939
				0.634497
				0.667606
				0.639326
				0.65681
				0.633964
				0.636497
				0.619596
				0.608349
				0.597052
				0.5744
				0.568219
				0.5363
				0.534848
				0.495336
				0.498279
				0.452539
				0.459586
				0.408784
				0.41968
				0.364815
				0.379391
				0.321353
				0.339488
				0.279315
				0.300819
				0.239977
				0.264473
				0.205233
				0.231939
				0.177923
				0.205265
				0.162408
				0.187243
				0.162408
				0.180799
				0.177923
				0.187243
				0.205232
				0.205265
				0.239977
				0.231939
				0.279315
				0.264473
				0.321353
				0.300818
				0.364814