<VTKFile type="UnstructuredGrid" version="0.1" byte_order="LittleEndian">
<UnstructuredGrid>
	<Piece NumberOfPoints="288" NumberOfCells="512">
		<CellData Scalars="density" Vectors="velocity">
			<DataArray type="Float64" Name="density" Format="ascii">
				1.05686
				1.04777
				1.04088
				1.04018
				1.01149
				1.02297
				0.96783
				0.994014
				0.913941
				0.953497
				0.856367
				0.906029
				0.804374
				0.859175
				0.771546
				0.823887
				0.773248
				0.813785
				0.808085
				0.833998
				0.861468
				0.874894
				0.920642
				0.924296
				0.976805
				0.973605
				1.02382
				1.0171
				1.05742
				1.05083
				1.07487
				1.07213
				1.07487
				1.07941
				1.05742
				1.07213
				1.02382
				1.05083
				0.976806
				1.0171
				0.920643
				0.973606
				0.861469
				0.924297
				0.808087
				0.874896
				0.773251
				0.834
				0.771548
				0.813788
				0.804376
				0.82389
				0.856369
				0.859176
				0.913942
				0.906031
				0.967831
				0.953498
				1.01149
				0.994015
				1.04088
				1.02297
				1.05686
				1.04018
				1.03956
				1.05556
				1.03199
				1.05019
				1.01891
				1.0368
				0.998496
				1.01501
				0.973106
				0.986418
				0.946216
				0.953273
				0.922747
				0.919534
				0.909158
				0.89204
				0.910858
				0.880177
				0.927329
				0.889038
				0.952672
				0.914083
				0.98058
				0.94687
				1.00658
				0.980491
				1.02788
				1.01033
				1.04283
				1.03344
				1.0505
				1.04796
				1.0505
				1.05291
				1.04283
				1.04796
				1.02788
				1.03344
				1.00658
				1.01033
				0.98058
				0.980492
				0.952672
				0.946871
				0.927331
				0.914084
				0.910859
				0.889039
				0.909159
				0.880179
				0.922748
				0.892041
				0.946217
				0.919535
				0.973107
				0.953274
				0.998497
				0.986419
				1.01891
				1.01501
				1.03199
				1.0368
				1.03956
				1.05019
				1.02933
				1.02212
				1.02532
				1.02004
				1.01695
				1.01561
				1.00469
				1.00775
				0.9895
				0.997113
				0.973003
				0.985104
				0.958185
				0.97351
				0.948992
				0.964901
				0.94858
				0.961906
				0.95706
				0.965736
				0.971562
				0.975227
				0.98832
				0.987697
				1.00426
				1.00047
				1.01738
				1.01164
				1.02656
				1.02012
				1.03126
				1.02534
				1.03126
				1.0271
				1.02656
				1.02534
				1.01738
				1.02012
				1.00426
				1.01164
				0.98832
				1.00047
				0.971563
				0.987697
				0.957061
				0.975228
				0.948581
				0.965736
				0.948992
				0.961907
				0.958186
				0.964902
				0.973003
				0.973511
				0.989501
				0.985104
				1.00469
				0.997114
				1.01695
				1.00775
				1.02532
				1.01561
				1.02933
				1.02004
				1.00818
				1.01179
				1.00768
				1.0119
				1.00573
				1.01007
				1.0021
				1.00576
				0.997536
				0.999881
				0.992688
				0.993078
				0.988528
				0.986517
				0.986141
				0.98168
				0.986273
				0.979933
				0.988922
				0.981838
				0.993342
				0.986814
				0.998462
				0.993505
				1.00333
				1.00047
				1.00732
				1.00662
				1.01009
				1.01129
				1.0115
				1.01418
				1.0115
				1.01515
				1.01009
				1.01418
				1.00732
				1.01129
				1.00333
				1.00662
				0.998462
				1.00047
				0.993342
				0.993506
				0.988923
				0.986815
				0.986273
				0.981839
				0.986141
				0.979933
				0.988528
				0.981681
				0.992688
				0.986517
				0.997536
				0.993078
				1.0021
				0.999881
				1.00573
				1.00576
				1.00769
				1.01007
				1.00818
				1.0119
				1.00332
				1.00173
				1.00433
				1.00237
				1.00315
				1.00262
				1.00117
				1.00163
				0.998753
				1.00012
				0.996267
				0.998361
				0.994194
				0.996699
				0.99305
				0.995515
				0.993174
				0.995129
				0.994549
				0.995665
				0.996805
				0.996982
				0.999413
				0.998746
				1.0019
				1.00059
				1.00393
				1.00221
				1.00534
				1.00344
				1.00606
				1.0042
				1.00606
				1.00445
				1.00534
				1.0042
				1.00393
				1.00344
				1.0019
				1.00221
				0.999414
				1.00059
				0.996805
				0.998746
				0.994549
				0.996982
				0.993174
				0.995665
				0.99305
				0.995129
				0.994194
				0.995515
				0.996267
				0.996699
				0.998753
				0.998361
				1.00117
				1.00012
				1.00315
				1.00163
				1.00433
				1.00262
				1.00332
				1.00237
				0.999888
				0.999792
				1.00087
				1.00116
				1.00077
				1.00141
				1.0003
				1.0007
				0.99974
				0.999949
				0.999168
				0.999117
				0.998704
				0.998351
				0.998462
				0.997823
				0.998518
				0.997684
				0.998865
				0.997989
				0.99942
				0.998663
				1.00006
				0.999546
				1.00066
				1.00046
				1.00116
				1.00126
				1.0015
				1.00186
				1.00168
				1.00224
				1.00168
				1.00236
				1.0015
				1.00224
				1.00116
				1.00186
				1.00066
				1.00126
				1.00006
				1.00046
				0.99942
				0.999546
				0.998865
				0.998663
				0.998518
				0.997989
				0.998462
				0.997684
				0.998704
				0.997823
				0.999168
				0.998351
				0.99974
				0.999117
				1.0003
				0.999949
				1.00077
				1.0007
				1.00087
				1.00141
				0.999888
				1.00116
				0.999608
				0.999213
				1.00057
				0.999969
				1.00027
				1.00033
				1.00006
				1.00017
				0.999812
				0.999999
				0.999566
				0.99982
				0.999372
				0.999662
				0.999284
				0.999558
				0.999333
				0.99954
				0.999516
				0.999616
				0.999789
				0.999773
				1.0001
				0.999976
				1.00038
				1.00018
				1.00062
				1.00037
				1.00078
				1.0005
				1.00086
				1.00059
				1.00086
				1.00062
				1.00078
				1.00059
				1.00062
				1.0005
				1.00038
				1.00037
				1.0001
				1.00018
				0.999789
				0.999976
				0.999516
				0.999773
				0.999334
				0.999616
				0.999284
				0.99954
				0.999372
				0.999559
				0.999566
				0.999662
				0.999812
				0.99982
				1.00006
				0.999999
				1.00027
				1.00017
				1.00057
				1.00033
				0.999608
				0.999969
				0.999572
				0.999255
				1.00007
				0.999969
				1.00003
				1.00008
				0.999959
				0.999963
				0.999903
				0.999915
				0.999859
				0.999851
				0.999838
				0.999799
				0.999853
				0.999778
				0.999906
				0.999804
				0.999993
				0.999881
				1.0001
				0.999997
				1.0002
				1.00013
				1.0003
				1.00026
				1.00037
				1.00037
				1.00041
				1.00045
				1.00044
				1.0005
				1.00044
				1.00052
				1.00041
				1.0005
				1.00037
				1.00045
				1.0003
				1.00037
				1.0002
				1.00026
				1.0001
				1.00013
				0.999993
				0.999997
				0.999907
				0.999881
				0.999853
				0.999804
				0.999838
				0.999778
				0.999859
				0.999799
				0.999903
				0.999851
				0.999959
				0.999915
				1.00003
				0.999963
				1.00007
				1.00008
				0.999572
				0.999969
			</DataArray>
			<DataArray type="Float64" Name="mach-number" Format="ascii">
				0.0684598
				0.0773524
				0.171745
				0.134628
				0.293132
				0.237707
				0.419909
				0.350831
				0.546009
				0.464882
				0.664804
				0.573574
				0.765565
				0.668852
				0.827938
				0.73737
				0.826103
				0.760236
				0.763839
				0.729831
				0.666983
				0.660369
				0.554205
				0.569075
				0.434837
				0.466667
				0.313323
				0.359228
				0.192435
				0.25131
				0.0799826
				0.151041
				0.0799814
				0.0961595
				0.192434
				0.151039
				0.313322
				0.251309
				0.434835
				0.359227
				0.554202
				0.466665
				0.66698
				0.569072
				0.763835
				0.660366
				0.826099
				0.729827
				0.827934
				0.760232
				0.765561
				0.737367
				0.6648
				0.668849
				0.546007
				0.573571
				0.419906
				0.464879
				0.29313
				0.350828
				0.171743
				0.237705
				0.0684583
				0.134626
				0.199258
				0.152127
				0.249387
				0.189037
				0.308757
				0.259935
				0.371735
				0.33661
				0.436089
				0.414901
				0.497489
				0.49128
				0.548581
				0.560448
				0.57891
				0.612823
				0.578965
				0.63452
				0.548748
				0.617293
				0.497329
				0.567657
				0.434709
				0.498448
				0.368583
				0.419944
				0.30545
				0.339349
				0.252909
				0.263552
				0.221501
				0.20354
				0.221501
				0.178881
				0.252909
				0.203539
				0.30545
				0.263551
				0.368582
				0.339348
				0.434708
				0.419943
				0.497328
				0.498446
				0.548746
				0.567655
				0.578963
				0.61729
				0.578908
				0.634517
				0.548579
				0.612821
				0.497486
				0.560446
				0.436088
				0.491278
				0.371734
				0.414899
				0.308755
				0.336608
				0.249386
				0.259933
				0.199257
				0.189036
				0.25995
				0.27866
				0.294186
				0.298521
				0.32766
				0.325679
				0.364341
				0.351442
				0.40487
				0.381717
				0.445216
				0.41416
				0.479128
				0.444046
				0.499275
				0.465585
				0.500011
				0.473489
				0.481046
				0.465532
				0.447434
				0.443942
				0.406165
				0.413826
				0.363682
				0.380765
				0.325426
				0.349581
				0.296212
				0.324161
				0.280252
				0.307531
				0.280252
				0.30174
				0.296212
				0.307531
				0.325425
				0.324161
				0.363681
				0.349581
				0.406164
				0.380764
				0.447433
				0.413825
				0.481045
				0.443941
				0.500009
				0.465531
				0.499273
				0.473487
				0.479127
				0.465584
				0.445214
				0.444045
				0.404869
				0.414159
				0.36434
				0.381717
				0.32766
				0.351442
				0.294185
				0.325679
				0.25995
				0.29852
				0.334791
				0.316728
				0.351368
				0.332189
				0.361108
				0.34851
				0.372705
				0.361875
				0.38638
				0.379089
				0.399905
				0.39778
				0.410888
				0.414875
				0.416957
				0.426985
				0.416566
				0.431224
				0.409798
				0.426454
				0.398369
				0.413933
				0.384805
				0.396649
				0.371523
				0.378023
				0.360343
				0.360966
				0.352405
				0.347552
				0.348313
				0.339062
				0.348313
				0.336163
				0.352405
				0.339061
				0.360343
				0.347552
				0.371523
				0.360966
				0.384804
				0.378022
				0.398368
				0.396648
				0.409797
				0.413932
				0.416565
				0.426453
				0.416956
				0.431223
				0.410888
				0.426984
				0.399905
				0.414874
				0.38638
				0.397779
				0.372705
				0.379089
				0.361107
				0.361874
				0.351368
				0.34851
				0.334791
				0.332188
				0.352927
				0.356092
				0.36547
				0.364988
				0.370489
				0.371797
				0.376715
				0.375635
				0.383751
				0.380502
				0.390539
				0.385406
				0.396004
				0.389776
				0.398959
				0.392794
				0.398606
				0.393697
				0.394988
				0.392189
				0.38901
				0.388631
				0.382007
				0.383873
				0.375244
				0.378881
				0.369635
				0.374438
				0.365705
				0.371042
				0.363698
				0.368941
				0.363698
				0.368234
				0.365705
				0.368941
				0.369635
				0.371042
				0.375244
				0.374438
				0.382006
				0.37888
				0.38901
				0.383873
				0.394988
				0.388631
				0.398605
				0.392189
				0.398959
				0.393697
				0.396004
				0.392793
				0.390539
				0.389776
				0.38375
				0.385406
				0.376714
				0.380502
				0.370489
				0.375635
				0.36547
				0.371797
				0.352927
				0.364988
				0.369927
				0.364573
				0.377053
				0.372125
				0.378684
				0.376769
				0.38009
				0.378547
				0.38156
				0.380822
				0.383004
				0.383044
				0.384183
				0.385058
				0.384787
				0.386446
				0.384608
				0.386816
				0.383657
				0.386016
				0.382156
				0.384225
				0.380433
				0.381865
				0.378793
				0.379411
				0.37745
				0.377244
				0.376519
				0.375598
				0.376047
				0.374584
				0.376047
				0.374244
				0.376519
				0.374584
				0.37745
				0.375598
				0.378793
				0.377244
				0.380433
				0.379411
				0.382156
				0.381865
				0.383657
				0.384225
				0.384608
				0.386015
				0.384787
				0.386816
				0.384183
				0.386446
				0.383003
				0.385058
				0.38156
				0.383043
				0.38009
				0.380822
				0.378684
				0.378547
				0.377053
				0.376769
				0.369927
				0.372125
				0.373708
				0.373791
				0.379444
				0.378016
				0.379986
				0.380337
				0.380482
				0.380376
				0.381054
				0.38068
				0.381661
				0.381048
				0.38216
				0.381412
				0.382393
				0.381655
				0.382267
				0.381683
				0.381792
				0.381463
				0.381072
				0.381036
				0.380258
				0.380493
				0.379491
				0.379939
				0.378867
				0.379454
				0.378436
				0.379087
				0.378217
				0.378863
				0.378217
				0.378787
				0.378436
				0.378863
				0.378867
				0.379087
				0.379491
				0.379454
				0.380258
				0.379939
				0.381072
				0.380493
				0.381792
				0.381036
				0.382267
				0.381463
				0.382393
				0.381682
				0.382159
				0.381654
				0.381661
				0.381412
				0.381054
				0.381048
				0.380482
				0.38068
				0.379985
				0.380376
				0.379444
				0.380337
				0.373708
				0.378016
				0.378652
				0.376445
				0.380319
				0.37943
				0.380382
				0.380647
				0.380333
				0.38043
				0.380387
				0.380499
				0.38047
				0.380623
				0.380546
				0.380766
				0.380573
				0.380863
				0.380525
				0.380862
				0.380399
				0.38074
				0.380217
				0.380513
				0.380013
				0.380227
				0.379821
				0.379935
				0.379664
				0.379681
				0.379556
				0.379489
				0.379501
				0.379371
				0.379501
				0.379332
				0.379556
				0.379371
				0.379664
				0.379489
				0.379821
				0.379681
				0.380013
				0.379935
				0.380217
				0.380226
				0.380399
				0.380513
				0.380525
				0.38074
				0.380573
				0.380862
				0.380546
				0.380863
				0.38047
				0.380766
				0.380386
				0.380623
				0.380333
				0.380499
				0.380382
				0.38043
				0.380319
				0.380647
				0.378652
				0.37943
			</DataArray>
			<DataArray type="Float64" Name="pressure" Format="ascii">
				5.33874
				5.2796
				5.24679
				5.24288
				5.04409
				5.12661
				4.74332
				4.92188
				4.37706
				4.64145
				3.9934
				4.32092
				3.6543
				4.01215
				3.44391
				3.78377
				3.45334
				3.71692
				3.67256
				3.842
				4.01503
				4.10325
				4.40395
				4.42744
				4.78238
				4.75906
				5.10637
				5.05759
				5.34208
				5.29269
				5.466
				5.4426
				5.466
				5.49406
				5.34208
				5.4426
				5.10637
				5.2927
				4.78238
				5.05759
				4.40396
				4.75907
				4.01504
				4.42745
				3.67257
				4.10326
				3.45336
				3.84201
				3.44393
				3.71694
				3.65431
				3.78379
				3.99341
				4.01216
				4.37707
				4.32093
				4.74333
				4.64146
				5.0441
				4.92189
				5.24679
				5.12661
				5.33874
				5.24288
				5.23532
				5.33219
				5.18766
				5.30627
				5.09209
				5.21307
				4.94894
				5.05989
				4.77369
				4.86225
				4.58997
				4.63648
				4.43076
				4.40985
				4.33832
				4.22714
				4.34775
				4.148
				4.45613
				4.20478
				4.6256
				4.36967
				4.81477
				4.5892
				4.99312
				4.81789
				5.14063
				5.02372
				5.24483
				5.18482
				5.29855
				5.28688
				5.29855
				5.32179
				5.24483
				5.28688
				5.14064
				5.18482
				4.99313
				5.02372
				4.81477
				4.8179
				4.62561
				4.5892
				4.45614
				4.36968
				4.34776
				4.20479
				4.33833
				4.14801
				4.43076
				4.22715
				4.58998
				4.40986
				4.7737
				4.63649
				4.94894
				4.86226
				5.09209
				5.05989
				5.18767
				5.21308
				5.23532
				5.30627
				5.16475
				5.11601
				5.13653
				5.10227
				5.0732
				5.06632
				4.98574
				5.00771
				4.87921
				4.9317
				4.76507
				4.84711
				4.66353
				4.76636
				4.60081
				4.7068
				4.59763
				4.68595
				4.65472
				4.71174
				4.75322
				4.77631
				4.86795
				4.86163
				4.9779
				4.94953
				5.06899
				5.02685
				5.13304
				5.08573
				5.1659
				5.12218
				5.1659
				5.13447
				5.13304
				5.12218
				5.06899
				5.08573
				4.97791
				5.02686
				4.86796
				4.94954
				4.75322
				4.86163
				4.65473
				4.77631
				4.59763
				4.71175
				4.60082
				4.68596
				4.66354
				4.7068
				4.76507
				4.76636
				4.87921
				4.84712
				4.98574
				4.9317
				5.0732
				5.00771
				5.13653
				5.06632
				5.16475
				5.10227
				5.01885
				5.04515
				5.00797
				5.04226
				4.98914
				5.02227
				4.96197
				4.98913
				4.92947
				4.94689
				4.89564
				4.89919
				4.86691
				4.85374
				4.85052
				4.82045
				4.85151
				4.80848
				4.86982
				4.82157
				4.90033
				4.85578
				4.93573
				4.90191
				4.96947
				4.95007
				4.99713
				4.9927
				5.01636
				5.02519
				5.02614
				5.04528
				5.02614
				5.05204
				5.01636
				5.04528
				4.99713
				5.02519
				4.96947
				4.9927
				4.93573
				4.95007
				4.90033
				4.90191
				4.86982
				4.85579
				4.85151
				4.82158
				4.85053
				4.80848
				4.86691
				4.82046
				4.89565
				4.85374
				4.92947
				4.89919
				4.96197
				4.94689
				4.98914
				4.98913
				5.00797
				5.02227
				5.01885
				5.04226
				4.98305
				4.97311
				4.98026
				4.97029
				4.96886
				4.96545
				4.9545
				4.95755
				4.93763
				4.94688
				4.92045
				4.93477
				4.90619
				4.92337
				4.89834
				4.91526
				4.89923
				4.91265
				4.90874
				4.9164
				4.92434
				4.92553
				4.9424
				4.93776
				4.95961
				4.9505
				4.97372
				4.96176
				4.98352
				4.9703
				4.98849
				4.97556
				4.98849
				4.97732
				4.98352
				4.97556
				4.97372
				4.9703
				4.95961
				4.96176
				4.9424
				4.9505
				4.92434
				4.93776
				4.90874
				4.92553
				4.89923
				4.9164
				4.89834
				4.91265
				4.90619
				4.91526
				4.92045
				4.92337
				4.93763
				4.93478
				4.9545
				4.94688
				4.96886
				4.95755
				4.98026
				4.96545
				4.98305
				4.97029
				4.95423
				4.95766
				4.9529
				4.95882
				4.95135
				4.95579
				4.94831
				4.9511
				4.94449
				4.94593
				4.94059
				4.94023
				4.93741
				4.93497
				4.93575
				4.93134
				4.93615
				4.93038
				4.93856
				4.93249
				4.94241
				4.93716
				4.94683
				4.94326
				4.95103
				4.94957
				4.95446
				4.95512
				4.95683
				4.95932
				4.95804
				4.96189
				4.95804
				4.96276
				4.95683
				4.96189
				4.95446
				4.95932
				4.95103
				4.95512
				4.94683
				4.94957
				4.94241
				4.94326
				4.93856
				4.93716
				4.93615
				4.93249
				4.93575
				4.93039
				4.93741
				4.93134
				4.94059
				4.93497
				4.94449
				4.94023
				4.94831
				4.94593
				4.95135
				4.9511
				4.9529
				4.95579
				4.95423
				4.95882
				4.94974
				4.94778
				4.9498
				4.94788
				4.94812
				4.94817
				4.94677
				4.94749
				4.94513
				4.94638
				4.94344
				4.94518
				4.9421
				4.9441
				4.9415
				4.94339
				4.94184
				4.94327
				4.9431
				4.94381
				4.94499
				4.9449
				4.94711
				4.9463
				4.9491
				4.94774
				4.95072
				4.949
				4.95183
				4.94996
				4.9524
				4.95054
				4.9524
				4.95074
				4.95183
				4.95054
				4.95072
				4.94996
				4.9491
				4.949
				4.94711
				4.94774
				4.94499
				4.9463
				4.9431
				4.9449
				4.94184
				4.94381
				4.9415
				4.94327
				4.94211
				4.94339
				4.94344
				4.9441
				4.94513
				4.94518
				4.94677
				4.94638
				4.94812
				4.94749
				4.9498
				4.94817
				4.94974
				4.94788
				4.94633
				4.94664
				4.94679
				4.9471
				4.94663
				4.94667
				4.94624
				4.94627
				4.94588
				4.94592
				4.94558
				4.94549
				4.94543
				4.94512
				4.94551
				4.94496
				4.94585
				4.94512
				4.94642
				4.94563
				4.94712
				4.94642
				4.94783
				4.94732
				4.94845
				4.94821
				4.94894
				4.94896
				4.94926
				4.94951
				4.94942
				4.94984
				4.94942
				4.94995
				4.94926
				4.94984
				4.94894
				4.94951
				4.94845
				4.94896
				4.94783
				4.94821
				4.94712
				4.94733
				4.94642
				4.94642
				4.94585
				4.94563
				4.94551
				4.94513
				4.94543
				4.94497
				4.94558
				4.94512
				4.94588
				4.94549
				4.94624
				4.94592
				4.94663
				4.94627
				4.94679
				4.94667
				4.94633
				4.9471
			</DataArray>
			<DataArray type="Float64" Name="velocity" NumberOfComponents="3" Format="ascii">
				0.133003 -0.12432 0.0 
				0.20545 -2.39341e-06 0.0 
				0.254609 -0.37859 0.0 
				0.274244 -0.229537 0.0 
				0.481107 -0.606987 0.0 
				0.443057 -0.447371 0.0 
				0.794635 -0.760512 0.0 
				0.684862 -0.619827 0.0 
				1.1639 -0.802646 0.0 
				0.982656 -0.712179 0.0 
				1.54232 -0.711749 0.0 
				1.30624 -0.700216 0.0 
				1.86887 -0.484766 0.0 
				1.61225 -0.5704 0.0 
				2.06458 -0.145534 0.0 
				1.84114 -0.325712 0.0 
				2.05206 0.236629 0.0 
				1.92242 -0.000943267 0.0 
				1.84214 0.564648 0.0 
				1.82487 0.324297 0.0 
				1.51517 0.77909 0.0 
				1.59189 0.573784 0.0 
				1.1454 0.863124 0.0 
				1.2896 0.713205 0.0 
				0.788032 0.821609 0.0 
				0.972867 0.737465 0.0 
				0.484333 0.671499 0.0 
				0.683744 0.656395 0.0 
				0.26479 0.437951 0.0 
				0.454222 0.488901 0.0 
				0.149853 0.151949 0.0 
				0.30724 0.260265 0.0 
				0.149852 -0.151945 0.0 
				0.256691 1.90996e-06 0.0 
				0.264789 -0.437947 0.0 
				0.307239 -0.260261 0.0 
				0.484332 -0.671495 0.0 
				0.454223 -0.488896 0.0 
				0.788028 -0.821604 0.0 
				0.683742 -0.656392 0.0 
				1.1454 -0.86312 0.0 
				0.972863 -0.737461 0.0 
				1.51517 -0.779086 0.0 
				1.2896 -0.713202 0.0 
				1.84213 -0.564645 0.0 
				1.59189 -0.573781 0.0 
				2.05205 -0.236627 0.0 
				1.82486 -0.324295 0.0 
				2.06457 0.145533 0.0 
				1.92241 0.000943004 0.0 
				1.86886 0.484763 0.0 
				1.84113 0.325709 0.0 
				1.54232 0.711745 0.0 
				1.61225 0.570397 0.0 
				1.1639 0.802642 0.0 
				1.30623 0.700211 0.0 
				0.79463 0.760507 0.0 
				0.982652 0.712175 0.0 
				0.481104 0.606981 0.0 
				0.684859 0.619822 0.0 
				0.254607 0.378585 0.0 
				0.443055 0.447365 0.0 
				0.133003 0.124315 0.0 
				0.274243 0.229532 0.0 
				0.523728 -0.075106 0.0 
				0.40456 -2.18165e-06 0.0 
				0.627934 -0.208312 0.0 
				0.472839 -0.170896 0.0 
				0.752941 -0.316344 0.0 
				0.61016 -0.321432 0.0 
				0.89917 -0.387772 0.0 
				0.776476 -0.433427 0.0 
				1.06683 -0.409827 0.0 
				0.972492 -0.492134 0.0 
				1.2425 -0.370104 0.0 
				1.18757 -0.482832 0.0 
				1.39809 -0.261503 0.0 
				1.39798 -0.39314 0.0 
				1.49341 -0.0927462 0.0 
				1.56289 -0.221056 0.0 
				1.49326 0.100835 0.0 
				1.62981 0.00968378 0.0 
				1.39749 0.269872 0.0 
				1.56989 0.241969 0.0 
				1.23954 0.38057 0.0 
				1.4077 0.418258 0.0 
				1.0586 0.422376 0.0 
				1.19302 0.512383 0.0 
				0.885249 0.399737 0.0 
				0.969329 0.523049 0.0 
				0.740388 0.324163 0.0 
				0.767848 0.460493 0.0 
				0.637395 0.210011 0.0 
				0.610058 0.340156 0.0 
				0.584106 0.0725911 0.0 
				0.510049 0.180151 0.0 
				0.584106 -0.072588 0.0 
				0.475841 1.70785e-06 0.0 
				0.637394 -0.210008 0.0 
				0.510048 -0.180148 0.0 
				0.740386 -0.32416 0.0 
				0.610057 -0.340152 0.0 
				0.885247 -0.399734 0.0 
				0.767846 -0.46049 0.0 
				1.05859 -0.422373 0.0 
				0.969327 -0.523046 0.0 
				1.23953 -0.380567 0.0 
				1.19302 -0.51238 0.0 
				1.39748 -0.26987 0.0 
				1.4077 -0.418255 0.0 
				1.49326 -0.100834 0.0 
				1.56988 -0.241968 0.0 
				1.49341 0.0927454 0.0 
				1.6298 -0.00968372 0.0 
				1.39809 0.2615 0.0 
				1.56289 0.221054 0.0 
				1.2425 0.370102 0.0 
				1.39797 0.393138 0.0 
				1.06683 0.409824 0.0 
				1.18757 0.482829 0.0 
				0.899168 0.387769 0.0 
				0.97249 0.49213 0.0 
				0.75294 0.31634 0.0 
				0.776474 0.433423 0.0 
				0.627933 0.208308 0.0 
				0.610159 0.321428 0.0 
				0.523727 0.0751016 0.0 
				0.472837 0.170891 0.0 
				0.687413 -0.0463397 0.0 
				0.737656 -1.23393e-06 0.0 
				0.768569 -0.12765 0.0 
				0.786825 -0.0704599 0.0 
				0.844272 -0.192419 0.0 
				0.851568 -0.124842 0.0 
				0.930837 -0.236166 0.0 
				0.911505 -0.168582 0.0 
				1.03396 -0.250069 0.0 
				0.985977 -0.191795 0.0 
				1.14384 -0.22502 0.0 
				1.07072 -0.187451 0.0 
				1.24083 -0.156724 0.0 
				1.1528 -0.150331 0.0 
				1.2997 -0.0518538 0.0 
				1.21396 -0.0816483 0.0 
				1.30071 0.0679839 0.0 
				1.23651 0.00704591 0.0 
				1.24321 0.173396 0.0 
				1.21294 0.0952772 0.0 
				1.14565 0.242281 0.0 
				1.15101 0.162889 0.0 
				1.03264 0.26688 0.0 
				1.06802 0.198591 0.0 
				0.92473 0.250448 0.0 
				0.981709 0.201009 0.0 
				0.835541 0.201435 0.0 
				0.905274 0.174998 0.0 
				0.772921 0.129663 0.0 
				0.8468 0.127872 0.0 
				0.740823 0.0446609 0.0 
				0.810509 0.0672019 0.0 
				0.740823 -0.0446584 0.0 
				0.798247 1.12378e-06 0.0 
				0.772921 -0.12966 0.0 
				0.810509 -0.0671997 0.0 
				0.83554 -0.201433 0.0 
				0.846799 -0.127869 0.0 
				0.924729 -0.250446 0.0 
				0.905273 -0.174995 0.0 
				1.03264 -0.266878 0.0 
				0.981708 -0.201007 0.0 
				1.14564 -0.242279 0.0 
				1.06802 -0.198589 0.0 
				1.24321 -0.173394 0.0 
				1.151 -0.162887 0.0 
				1.30071 -0.0679835 0.0 
				1.21294 -0.0952766 0.0 
				1.2997 0.0518532 0.0 
				1.23651 -0.00704605 0.0 
				1.24083 0.156722 0.0 
				1.21396 0.0816474 0.0 
				1.14384 0.225018 0.0 
				1.1528 0.150329 0.0 
				1.03396 0.250067 0.0 
				1.07072 0.187448 0.0 
				0.930836 0.236164 0.0 
				0.985976 0.191793 0.0 
				0.844271 0.192416 0.0 
				0.911504 0.168579 0.0 
				0.768568 0.127647 0.0 
				0.851568 0.12484 0.0 
				0.687412 0.0463367 0.0 
				0.786824 0.0704574 0.0 
				0.883676 -0.0166342 0.0 
				0.836839 -9.63024e-07 0.0 
				0.925983 -0.0393446 0.0 
				0.876554 -0.0383078 0.0 
				0.949745 -0.0600313 0.0 
				0.916958 -0.0683518 0.0 
				0.978494 -0.0741478 0.0 
				0.949113 -0.0929033 0.0 
				1.01332 -0.0775559 0.0 
				0.992082 -0.105671 0.0 
				1.04858 -0.0682784 0.0 
				1.04035 -0.102556 0.0 
				1.07777 -0.0458232 0.0 
				1.08582 -0.0811707 0.0 
				1.09408 -0.0130521 0.0 
				1.11871 -0.0427829 0.0 
				1.09292 0.023442 0.0 
				1.13023 0.00607465 0.0 
				1.07456 0.0553947 0.0 
				1.11685 0.0545602 0.0 
				1.04413 0.0763302 0.0 
				1.08255 0.091836 0.0 
				1.00885 0.0836253 0.0 
				1.03651 0.111448 0.0 
				0.9752 0.0781127 0.0 
				0.988542 0.112422 0.0 
				0.947574 0.0625208 0.0 
				0.946175 0.0975249 0.0 
				0.92836 0.0400754 0.0 
				0.913933 0.0710258 0.0 
				0.918588 0.0137702 0.0 
				0.894029 0.0372399 0.0 
				0.918587 -0.0137687 0.0 
				0.887326 8.77702e-07 0.0 
				0.92836 -0.0400739 0.0 
				0.894029 -0.0372382 0.0 
				0.947573 -0.0625194 0.0 
				0.913932 -0.0710241 0.0 
				0.975198 -0.0781114 0.0 
				0.946174 -0.0975233 0.0 
				1.00885 -0.0836242 0.0 
				0.988541 -0.11242 0.0 
				1.04413 -0.0763293 0.0 
				1.0365 -0.111447 0.0 
				1.07456 -0.0553941 0.0 
				1.08255 -0.0918351 0.0 
				1.09292 -0.0234419 0.0 
				1.11684 -0.0545597 0.0 
				1.09408 0.0130518 0.0 
				1.13023 -0.00607477 0.0 
				1.07777 0.0458224 0.0 
				1.11871 0.0427823 0.0 
				1.04858 0.0682773 0.0 
				1.08582 0.0811696 0.0 
				1.01332 0.0775545 0.0 
				1.04034 0.102555 0.0 
				0.978493 0.0741462 0.0 
				0.992081 0.10567 0.0 
				0.949745 0.0600297 0.0 
				0.949112 0.0929015 0.0 
				0.925983 0.0393429 0.0 
				0.916958 0.0683499 0.0 
				0.883676 0.0166324 0.0 
				0.876553 0.0383059 0.0 
				0.930593 -0.00825205 0.0 
				0.938782 -5.4447e-07 0.0 
				0.962746 -0.0197575 0.0 
				0.961589 -0.0110929 0.0 
				0.975152 -0.0305516 0.0 
				0.97884 -0.0174754 0.0 
				0.990862 -0.0374376 0.0 
				0.988502 -0.0243729 0.0 
				1.00884 -0.0388476 0.0 
				1.00092 -0.0271818 0.0 
				1.02638 -0.0339183 0.0 
				1.01351 -0.0259798 0.0 
				1.04064 -0.0224229 0.0 
				1.02481 -0.0201027 0.0 
				1.04839 -0.00580238 0.0 
				1.03266 -0.00991964 0.0 
				1.04744 0.0126451 0.0 
				1.03501 0.00282848 0.0 
				1.03789 0.0287938 0.0 
				1.03105 0.0153715 0.0 
				1.02229 0.0393671 0.0 
				1.02177 0.0249749 0.0 
				1.00423 0.0429903 0.0 
				1.00948 0.0299748 0.0 
				0.987035 0.0400674 0.0 
				0.996705 0.0300797 0.0 
				0.97295 0.0320096 0.0 
				0.985443 0.0260039 0.0 
				0.963181 0.0204879 0.0 
				0.976903 0.0188883 0.0 
				0.958223 0.00703425 0.0 
				0.97165 0.00988604 0.0 
				0.958223 -0.00703319 0.0 
				0.969885 4.43831e-07 0.0 
				0.963181 -0.0204868 0.0 
				0.97165 -0.00988517 0.0 
				0.97295 -0.0320086 0.0 
				0.976902 -0.0188875 0.0 
				0.987034 -0.0400665 0.0 
				0.985443 -0.0260031 0.0 
				1.00423 -0.0429895 0.0 
				0.996704 -0.030079 0.0 
				1.02228 -0.0393665 0.0 
				1.00948 -0.0299742 0.0 
				1.03789 -0.0287934 0.0 
				1.02177 -0.0249746 0.0 
				1.04743 -0.0126451 0.0 
				1.03105 -0.0153713 0.0 
				1.04839 0.00580213 0.0 
				1.035 -0.0028286 0.0 
				1.04064 0.0224223 0.0 
				1.03266 0.00991926 0.0 
				1.02637 0.0339175 0.0 
				1.02481 0.0201021 0.0 
				1.00884 0.0388466 0.0 
				1.01351 0.025979 0.0 
				0.990862 0.0374365 0.0 
				1.00092 0.0271809 0.0 
				0.975152 0.0305503 0.0 
				0.988502 0.0243719 0.0 
				0.962746 0.0197562 0.0 
				0.978839 0.0174743 0.0 
				0.930592 0.0082508 0.0 
				0.961589 0.0110919 0.0 
				0.974294 -0.00317314 0.0 
				0.960577 -3.67271e-07 0.0 
				0.992438 -0.00440565 0.0 
				0.979905 -0.00520633 0.0 
				0.996611 -0.00691323 0.0 
				0.991687 -0.00844298 0.0 
				1.00022 -0.0084942 0.0 
				0.996214 -0.0116306 0.0 
				1.00399 -0.0087842 0.0 
				1.00204 -0.0128752 0.0 
				1.00768 -0.00759889 0.0 
				1.00773 -0.0122897 0.0 
				1.01071 -0.00483968 0.0 
				1.01291 -0.00944607 0.0 
				1.01227 -0.000884703 0.0 
				1.01649 -0.00451386 0.0 
				1.0118 0.00346703 0.0 
				1.01745 0.00165378 0.0 
				1.00935 0.00725175 0.0 
				1.01538 0.00771497 0.0 
				1.00549 0.00970807 0.0 
				1.01076 0.0123495 0.0 
				1.00108 0.0105099 0.0 
				1.00469 0.0147462 0.0 
				0.996894 0.00975089 0.0 
				0.998416 0.0147589 0.0 
				0.993475 0.00776802 0.0 
				0.992898 0.0127366 0.0 
				0.99111 0.00496321 0.0 
				0.988723 0.00923972 0.0 
				0.989911 0.00170261 0.0 
				0.986159 0.00483221 0.0 
				0.989911 -0.00170213 0.0 
				0.985299 2.98382e-07 0.0 
				0.991109 -0.00496275 0.0 
				0.986159 -0.00483162 0.0 
				0.993475 -0.00776759 0.0 
				0.988722 -0.00923915 0.0 
				0.996893 -0.00975051 0.0 
				0.992897 -0.0127361 0.0 
				1.00108 -0.0105096 0.0 
				0.998415 -0.0147585 0.0 
				1.00549 -0.00970786 0.0 
				1.00469 -0.0147459 0.0 
				1.00935 -0.00725167 0.0 
				1.01076 -0.0123493 0.0 
				1.0118 -0.00346708 0.0 
				1.01537 -0.00771491 0.0 
				1.01227 0.000884515 0.0 
				1.01745 -0.0016539 0.0 
				1.01071 0.00483937 0.0 
				1.01649 0.00451357 0.0 
				1.00768 0.00759847 0.0 
				1.01291 0.00944564 0.0 
				1.00399 0.00878371 0.0 
				1.00773 0.0122892 0.0 
				1.00022 0.00849364 0.0 
				1.00204 0.0128745 0.0 