<VTKFile type="UnstructuredGrid" version="0.1" byte_order="LittleEndian">
<UnstructuredGrid>
	<Piece NumberOfPoints="4224" NumberOfCells="8192">
		<CellData Scalars="density" Vectors="velocity">
			<DataArray type="Float64" Name="density" Format="ascii">
				0.978605
				0.978725
				0.978465
				0.978662
				0.978156
				0.978459
				0.977625
				0.978074
				0.976805
				0.977449
				0.975619
				0.976511
				0.97399
				0.975185
				0.971848
				0.973401
				0.969131
				0.971095
				0.965785
				0.96821
				0.961759
				0.964697
				0.957012
				0.960514
				0.951523
				0.955633
				0.945278
				0.950035
				0.938276
				0.943716
				0.930542
				0.936688
				0.922103
				0.928981
				0.913032
				0.920642
				0.903391
				0.91174
				0.893289
				0.902358
				0.882835
				0.892601
				0.872147
				0.882585
				0.861392
				0.872447
				0.850738
				0.862345
				0.840361
				0.852447
				0.830462
				0.842933
				0.821232
				0.833991
				0.812918
				0.825827
				0.805744
				0.818655
				0.799904
				0.812671
				0.79559
				0.80806
				0.793017
				0.804999
				0.792259
				0.80362
				0.793435
				0.804007
				0.796496
				0.806185
				0.801388
				0.810113
				0.808026
				0.815718
				0.816247
				0.822878
				0.825827
				0.831422
				0.836593
				0.841169
				0.848344
				0.851943
				0.860892
				0.863561
				0.874046
				0.875846
				0.887606
				0.888622
				0.901443
				0.901732
				0.915412
				0.915041
				0.929345
				0.928406
				0.943169
				0.941707
				0.95671
				0.954827
				0.969904
				0.967654
				0.982636
				0.980098
				0.994829
				0.992067
				1.00639
				1.00348
				1.01725
				1.01425
				1.02734
				1.02432
				1.03659
				1.03362
				1.04496
				1.0421
				1.05239
				1.04969
				1.05884
				1.05637
				1.06427
				1.06209
				1.06865
				1.06681
				1.07195
				1.07051
				1.07417
				1.07317
				1.07528
				1.07477
				1.07528
				1.0753
				1.07417
				1.07477
				1.07195
				1.07317
				1.06865
				1.07051
				1.06427
				1.06681
				1.05884
				1.06209
				1.05239
				1.05637
				1.04496
				1.04969
				1.03659
				1.0421
				1.02734
				1.03362
				1.01725
				1.02432
				1.00639
				1.01425
				0.994829
				1.00348
				0.982636
				0.992067
				0.969906
				0.980099
				0.956703
				0.967653
				0.943168
				0.954824
				0.929353
				0.941709
				0.91541
				0.928408
				0.901442
				0.91504
				0.887606
				0.901732
				0.874045
				0.888622
				0.860889
				0.875845
				0.848352
				0.863562
				0.836591
				0.851944
				0.825826
				0.841169
				0.816247
				0.831421
				0.808026
				0.822878
				0.801389
				0.815718
				0.796496
				0.810113
				0.793435
				0.806185
				0.792259
				0.804007
				0.793017
				0.80362
				0.79559
				0.804999
				0.799904
				0.80806
				0.805744
				0.812671
				0.812918
				0.818655
				0.821232
				0.825827
				0.830462
				0.833991
				0.840361
				0.842933
				0.850738
				0.852447
				0.861393
				0.862346
				0.872147
				0.872447
				0.882836
				0.882585
				0.893289
				0.892601
				0.903391
				0.902358
				0.913034
				0.91174
				0.922099
				0.920642
				0.930543
				0.92898
				0.938276
				0.936689
				0.945278
				0.943716
				0.951523
				0.950035
				0.957012
				0.955633
				0.961759
				0.960514
				0.965784
				0.964697
				0.969132
				0.96821
				0.971848
				0.971095
				0.97399
				0.973401
				0.975619
				0.975185
				0.976805
				0.976511
				0.977625
				0.977449
				0.978156
				0.978074
				0.978465
				0.978459
				0.978605
				0.978662
				0.979791
				0.979661
				0.979713
				0.979618
				0.979529
				0.979473
				0.979186
				0.979184
				0.978617
				0.978688
				0.977747
				0.977911
				0.976505
				0.976778
				0.974828
				0.975219
				0.972658
				0.973174
				0.969949
				0.970589
				0.966659
				0.967417
				0.962756
				0.963618
				0.958216
				0.959163
				0.95303
				0.954033
				0.947199
				0.948222
				0.940741
				0.941738
				0.93369
				0.934604
				0.926095
				0.926863
				0.918025
				0.91857
				0.909562
				0.909805
				0.900805
				0.900658
				0.891869
				0.891235
				0.882887
				0.881666
				0.874004
				0.872095
				0.865378
				0.862681
				0.857181
				0.853596
				0.849593
				0.845025
				0.842802
				0.837169
				0.836995
				0.830237
				0.832352
				0.824425
				0.829036
				0.819922
				0.827183
				0.816909
				0.826891
				0.815514
				0.828205
				0.815831
				0.831122
				0.817882
				0.835585
				0.821634
				0.8415
				0.827012
				0.848732
				0.83389
				0.857125
				0.842097
				0.866516
				0.851459
				0.876738
				0.861795
				0.887628
				0.872924
				0.899026
				0.884672
				0.910784
				0.896867
				0.922767
				0.909361
				0.934848
				0.922018
				0.946912
				0.934703
				0.958847
				0.947308
				0.970557
				0.959715
				0.981951
				0.971829
				0.992944
				0.98356
				1.00346
				0.994826
				1.01343
				1.00555
				1.02279
				1.01567
				1.03148
				1.02511
				1.03945
				1.03382
				1.04665
				1.04175
				1.05305
				1.04885
				1.05859
				1.05509
				1.06326
				1.06042
				1.06703
				1.06483
				1.06987
				1.06828
				1.07177
				1.07076
				1.07273
				1.07225
				1.07273
				1.07275
				1.07177
				1.07225
				1.06987
				1.07076
				1.06703
				1.06828
				1.06326
				1.06483
				1.05859
				1.06042
				1.05305
				1.05509
				1.04665
				1.04885
				1.03945
				1.04175
				1.03148
				1.03382
				1.02279
				1.02511
				1.01343
				1.01567
				1.00346
				1.00555
				0.992944
				0.994826
				0.98195
				0.98356
				0.970557
				0.971828
				0.958847
				0.959713
				0.946912
				0.947309
				0.934849
				0.934705
				0.922767
				0.922017
				0.910784
				0.90936
				0.899026
				0.896866
				0.887628
				0.884671
				0.876739
				0.872924
				0.866517
				0.861796
				0.857125
				0.851459
				0.848731
				0.842097
				0.8415
				0.833889
				0.835585
				0.827012
				0.831122
				0.821634
				0.828205
				0.817882
				0.826891
				0.815831
				0.827183
				0.815514
				0.829036
				0.816909
				0.832352
				0.819922
				0.836995
				0.824425
				0.842802
				0.830237
				0.849593
				0.837169
				0.857181
				0.845025
				0.865378
				0.853597
				0.874004
				0.862681
				0.882887
				0.872095
				0.891869
				0.881666
				0.900804
				0.891235
				0.909562
				0.900657
				0.918025
				0.909805
				0.926095
				0.918571
				0.93369
				0.926863
				0.940741
				0.934603
				0.947199
				0.941738
				0.95303
				0.948222
				0.958216
				0.954033
				0.962756
				0.959163
				0.966659
				0.963618
				0.969949
				0.967417
				0.972658
				0.970589
				0.974828
				0.973174
				0.976505
				0.975219
				0.977747
				0.976778
				0.978617
				0.977911
				0.979186
				0.978688
				0.979529
				0.979184
				0.979713
				0.979473
				0.979791
				0.979618
				0.98081
				0.981003
				0.980768
				0.980992
				0.980654
				0.980944
				0.980413
				0.980817
				0.979974
				0.980549
				0.979263
				0.980066
				0.978211
				0.979297
				0.976756
				0.978174
				0.974845
				0.976642
				0.972432
				0.974652
				0.969479
				0.972162
				0.965953
				0.969138
				0.961831
				0.965553
				0.957101
				0.961391
				0.951761
				0.956647
				0.945827
				0.951328
				0.939324
				0.945457
				0.932297
				0.939072
				0.924806
				0.932223
				0.916923
				0.924979
				0.908741
				0.917421
				0.900365
				0.909648
				0.891918
				0.901771
				0.883537
				0.893914
				0.875372
				0.886217
				0.867586
				0.878828
				0.860357
				0.871907
				0.853864
				0.86562
				0.848292
				0.860134
				0.843819
				0.855615
				0.840606
				0.852214
				0.83879
				0.850064
				0.838468
				0.849265
				0.839689
				0.84988
				0.842448
				0.851925
				0.846695
				0.855372
				0.852333
				0.860151
				0.859231
				0.866159
				0.867235
				0.873267
				0.876184
				0.881333
				0.885914
				0.890208
				0.896265
				0.899742
				0.90708
				0.909791
				0.91822
				0.920219
				0.929552
				0.930896
				0.940955
				0.941706
				0.952321
				0.952538
				0.963546
				0.963292
				0.97454
				0.973876
				0.985218
				0.984206
				0.995505
				0.994205
				1.00533
				1.0038
				1.01463
				1.01293
				1.02335
				1.02154
				1.03144
				1.02957
				1.03884
				1.03697
				1.04553
				1.04371
				1.05146
				1.04974
				1.0566
				1.05504
				1.06092
				1.05956
				1.06441
				1.0633
				1.06704
				1.06623
				1.0688
				1.06833
				1.06968
				1.06959
				1.06968
				1.07001
				1.0688
				1.06959
				1.06704
				1.06833
				1.06441
				1.06623
				1.06092
				1.0633
				1.0566
				1.05956
				1.05146
				1.05504
				1.04553
				1.04974
				1.03884
				1.04371
				1.03144
				1.03697
				1.02335
				1.02957
				1.01463
				1.02154
				1.00533
				1.01293
				0.995505
				1.0038
				0.985218
				0.994204
				0.97454
				0.984206
				0.963546
				0.973876
				0.952321
				0.963292
				0.940956
				0.952538
				0.929552
				0.941706
				0.91822
				0.930897
				0.90708
				0.920219
				0.896265
				0.909791
				0.885915
				0.899742
				0.876185
				0.890208
				0.867235
				0.881333
				0.85923
				0.873267
				0.852333
				0.866159
				0.846695
				0.860151
				0.842448
				0.855372
				0.839689
				0.851925
				0.838468
				0.84988
				0.83879
				0.849265
				0.840606
				0.850064
				0.843819
				0.852214
				0.848292
				0.855615
				0.853864
				0.860134
				0.860357
				0.86562
				0.867587
				0.871907
				0.875372
				0.878828
				0.883537
				0.886217
				0.891918
				0.893914
				0.900365
				0.901771
				0.908741
				0.909648
				0.916923
				0.917421
				0.924806
				0.924978
				0.932297
				0.932223
				0.939324
				0.939072
				0.945827
				0.945457
				0.951761
				0.951328
				0.957101
				0.956647
				0.961831
				0.961391
				0.965953
				0.965553
				0.969478
				0.969138
				0.972432
				0.972162
				0.974845
				0.974652
				0.976756
				0.976642
				0.978211
				0.978174
				0.979263
				0.979297
				0.979974
				0.980066
				0.980413
				0.980549
				0.980654
				0.980817
				0.980768
				0.980944
				0.98081
				0.980992
				0.98229
				0.982037
				0.982319
				0.982042
				0.982345
				0.982042
				0.982312
				0.981992
				0.98215
				0.981825
				0.981783
				0.981468
				0.981141
				0.980847
				0.980164
				0.9799
				0.9788
				0.978574
				0.977007
				0.976822
				0.97475
				0.974605
				0.971998
				0.971891
				0.968731
				0.968654
				0.96494
				0.964877
				0.960625
				0.960553
				0.9558
				0.955689
				0.950494
				0.950303
				0.944748
				0.944429
				0.938618
				0.938112
				0.932173
				0.931415
				0.925494
				0.924413
				0.918677
				0.917194
				0.911828
				0.909862
				0.905066
				0.902534
				0.898519
				0.895339
				0.892325
				0.888417
				0.886628
				0.88192
				0.881574
				0.876006
				0.87731
				0.870836
				0.873973
				0.866567
				0.871685
				0.863349
				0.870546
				0.861307
				0.870624
				0.860543
				0.871952
				0.861116
				0.874522
				0.863044
				0.87829
				0.8663
				0.883181
				0.870817
				0.889093
				0.876496
				0.895908
				0.883213
				0.903496
				0.890828
				0.911726
				0.899199
				0.920469
				0.90818
				0.929599
				0.917632
				0.938999
				0.927425
				0.948559
				0.937436
				0.958176
				0.947553
				0.967758
				0.957673
				0.97722
				0.967701
				0.986483
				0.977554
				0.995477
				0.987153
				1.00414
				0.996429
				1.0124
				1.00532
				1.02023
				1.01376
				1.02756
				1.02171
				1.03435
				1.02911
				1.04057
				1.03593
				1.04618
				1.04213
				1.05115
				1.04767
				1.05546
				1.05253
				1.05909
				1.05668
				1.06201
				1.06011
				1.06421
				1.06279
				1.06569
				1.06471
				1.06642
				1.06587
				1.06642
				1.06626
				1.06569
				1.06587
				1.06421
				1.06471
				1.06201
				1.06279
				1.05909
				1.06011
				1.05546
				1.05668
				1.05115
				1.05253
				1.04618
				1.04767
				1.04057
				1.04213
				1.03435
				1.03593
				1.02756
				1.02911
				1.02023
				1.02171
				1.0124
				1.01376
				1.00414
				1.00532
				0.995477
				0.996428
				0.986483
				0.987153
				0.97722
				0.977554
				0.967758
				0.967701
				0.958176
				0.957673
				0.948559
				0.947553
				0.938999
				0.937436
				0.9296
				0.927425
				0.920469
				0.917632
				0.911726
				0.90818
				0.903496
				0.899199
				0.895908
				0.890829
				0.889093
				0.883213
				0.883181
				0.876496
				0.87829
				0.870817
				0.874522
				0.8663
				0.871952
				0.863044
				0.870624
				0.861116
				0.870546
				0.860543
				0.871685
				0.861307
				0.873973
				0.863349
				0.87731
				0.866567
				0.881574
				0.870836
				0.886628
				0.876006
				0.892325
				0.881921
				0.898519
				0.888417
				0.905066
				0.895339
				0.911828
				0.902534
				0.918677
				0.909862
				0.925494
				0.917194
				0.932173
				0.924413
				0.938619
				0.931415
				0.944749
				0.938113
				0.950494
				0.944429
				0.9558
				0.950303
				0.960624
				0.955689
				0.96494
				0.960553
				0.968731
				0.964877
				0.971998
				0.968654
				0.97475
				0.971891
				0.977007
				0.974605
				0.9788
				0.976822
				0.980164
				0.978574
				0.981141
				0.9799
				0.981783
				0.980847
				0.98215
				0.981468
				0.982312
				0.981825
				0.982345
				0.981992
				0.982319
				0.982042
				0.98229
				0.982042
				0.983262
				0.983574
				0.98332
				0.983619
				0.983402
				0.983737
				0.983447
				0.983879
				0.983381
				0.983976
				0.983126
				0.983947
				0.982615
				0.983716
				0.98179
				0.983214
				0.980605
				0.982388
				0.979019
				0.981192
				0.977001
				0.979587
				0.974522
				0.977543
				0.971565
				0.975038
				0.96812
				0.972059
				0.964189
				0.968604
				0.959785
				0.964684
				0.954934
				0.96032
				0.949674
				0.955548
				0.944057
				0.950414
				0.938144
				0.944977
				0.932011
				0.939306
				0.925745
				0.933481
				0.919444
				0.927592
				0.913217
				0.921741
				0.907182
				0.916035
				0.901467
				0.910591
				0.896206
				0.905531
				0.891538
				0.90098
				0.887598
				0.897066
				0.884516
				0.893907
				0.882409
				0.891613
				0.881369
				0.890278
				0.881462
				0.889971
				0.882719
				0.890732
				0.885134
				0.892571
				0.888665
				0.895464
				0.893242
				0.89936
				0.898768
				0.904185
				0.905129
				0.90984
				0.912206
				0.916222
				0.919872
				0.923217
				0.928004
				0.930712
				0.936484
				0.938593
				0.945202
				0.946757
				0.954052
				0.955101
				0.962942
				0.963533
				0.971784
				0.971967
				0.9805
				0.980324
				0.989018
				0.988533
				0.997274
				0.996528
				1.00521
				1.00425
				1.01278
				1.01165
				1.01992
				1.01867
				1.02661
				1.02528
				1.0328
				1.03143
				1.03846
				1.0371
				1.04356
				1.04224
				1.04807
				1.04684
				1.05198
				1.05087
				1.05526
				1.05431
				1.05791
				1.05715
				1.0599
				1.05937
				1.06124
				1.06097
				1.06191
				1.06193
				1.06191
				1.06225
				1.06124
				1.06193
				1.0599
				1.06097
				1.05791
				1.05937
				1.05526
				1.05715
				1.05198
				1.05431
				1.04807
				1.05087
				1.04356
				1.04684
				1.03846
				1.04224
				1.0328
				1.0371
				1.02661
				1.03143
				1.01992
				1.02528
				1.01278
				1.01867
				1.00521
				1.01165
				0.997274
				1.00425
				0.989018
				0.996528
				0.980499
				0.988533
				0.971784
				0.980324
				0.962942
				0.971967
				0.954052
				0.963533
				0.945202
				0.955101
				0.936484
				0.946757
				0.928004
				0.938593
				0.919872
				0.930712
				0.912206
				0.923217
				0.90513
				0.916222
				0.898767
				0.90984
				0.893242
				0.904184
				0.888665
				0.89936
				0.885134
				0.895464
				0.882719
				0.892571
				0.881462
				0.890732
				0.881369
				0.889971
				0.882409
				0.890278
				0.884517
				0.891613
				0.887598
				0.893907
				0.891538
				0.897066
				0.896206
				0.90098
				0.901467
				0.905531
				0.907182
				0.910591
				0.913217
				0.916035
				0.919444
				0.921741
				0.925745
				0.927593
				0.932011
				0.933481
				0.938144
				0.939306
				0.944057
				0.944977
				0.949674
				0.950414
				0.954934
				0.955548
				0.959785
				0.96032
				0.964189
				0.964684
				0.96812
				0.968604
				0.971565
				0.972059
				0.974522
				0.975038
				0.977001
				0.977543
				0.979019
				0.979587
				0.980605
				0.981192
				0.98179
				0.982388
				0.982615
				0.983214
				0.983126
				0.983716
				0.983381
				0.983947
				0.983447
				0.983976
				0.983402
				0.983879
				0.98332
				0.983737
				0.983262
				0.983619
				0.984796
				0.98438
				0.984943
				0.984439
				0.985199
				0.984596
				0.985496
				0.984798
				0.985748
				0.984968
				0.985867
				0.985024
				0.985776
				0.984889
				0.98541
				0.984496
				0.98472
				0.983797
				0.983665
				0.98275
				0.982215
				0.981321
				0.980347
				0.979485
				0.978049
				0.977223
				0.975319
				0.974525
				0.972166
				0.971392
				0.96861
				0.967834
				0.964682
				0.963873
				0.960422
				0.959542
				0.955881
				0.954884
				0.951117
				0.949953
				0.946199
				0.94481
				0.941202
				0.939528
				0.936208
				0.93419
				0.931309
				0.928884
				0.926602
				0.923711
				0.922188
				0.918775
				0.918172
				0.914189
				0.914661
				0.910068
				0.911758
				0.906527
				0.909557
				0.903677
				0.908142
				0.901618
				0.907579
				0.900436
				0.907913
				0.900195
				0.909163
				0.900932
				0.911321
				0.902656
				0.914357
				0.905347
				0.918216
				0.908955
				0.922826
				0.913412
				0.928103
				0.918628
				0.933952
				0.924506
				0.940277
				0.93094
				0.946982
				0.937825
				0.953971
				0.945056
				0.961156
				0.952535
				0.968452
				0.960168
				0.97578
				0.96787
				0.983069
				0.975561
				0.990254
				0.98317
				0.997275
				0.990632
				1.00408
				0.997888
				1.01062
				1.00488
				1.01685
				1.01158
				1.02273
				1.01792
				1.02823
				1.02388
				1.03332
				1.02942
				1.03798
				1.03451
				1.04217
				1.03914
				1.04587
				1.04326
				1.04908
				1.04688
				1.05178
				1.04996
				1.05395
				1.0525
				1.05558
				1.05449
				1.05668
				1.05591
				1.05723
				1.05677
				1.05723
				1.05706
				1.05668
				1.05677
				1.05558
				1.05591
				1.05395
				1.05449
				1.05178
				1.0525
				1.04908
				1.04996
				1.04587
				1.04688
				1.04217
				1.04326
				1.03798
				1.03914
				1.03332
				1.03451
				1.02823
				1.02942
				1.02273
				1.02388
				1.01685
				1.01792
				1.01062
				1.01158
				1.00408
				1.00488
				0.997275
				0.997887
				0.990254
				0.990632
				0.983069
				0.98317
				0.97578
				0.975561
				0.968451
				0.96787
				0.961156
				0.960168
				0.953971
				0.952535
				0.946982
				0.945056
				0.940277
				0.937825
				0.933952
				0.93094
				0.928103
				0.924506
				0.922826
				0.918629
				0.918216
				0.913412
				0.914357
				0.908955
				0.911321
				0.905347
				0.909163
				0.902656
				0.907913
				0.900932
				0.907579
				0.900195
				0.908142
				0.900436
				0.909557
				0.901618
				0.911758
				0.903677
				0.914661
				0.906527
				0.918172
				0.910068
				0.922188
				0.91419
				0.926602
				0.918775
				0.93131
				0.923711
				0.936208
				0.928884
				0.941202
				0.93419
				0.946199
				0.939528
				0.951117
				0.94481
				0.955881
				0.949953
				0.960422
				0.954884
				0.964682
				0.959542
				0.96861
				0.963873
				0.972166
				0.967834
				0.975319
				0.971392
				0.978049
				0.974525
				0.980347
				0.977223
				0.982215
				0.979485
				0.983665
				0.981321
				0.98472
				0.98275
				0.98541
				0.983797
				0.985776
				0.984496
				0.985867
				0.984888
				0.985748
				0.985024
				0.985496
				0.984968
				0.985199
				0.984798
				0.984943
				0.984596
				0.984796
				0.984439
				0.985354
				0.985807
				0.985526
				0.985917
				0.985829
				0.986222
				0.986186
				0.98666
				0.986506
				0.987139
				0.986698
				0.987559
				0.986687
				0.987824
				0.986411
				0.987858
				0.985827
				0.987602
				0.984901
				0.987013
				0.983608
				0.98606
				0.981932
				0.984723
				0.979863
				0.982993
				0.977403
				0.980868
				0.974564
				0.978359
				0.971366
				0.975488
				0.967836
				0.972281
				0.964014
				0.968777
				0.959945
				0.965019
				0.95568
				0.961057
				0.95128
				0.956948
				0.946813
				0.952754
				0.942353
				0.948545
				0.937981
				0.944394
				0.933783
				0.94038
				0.929851
				0.936589
				0.926279
				0.933105
				0.923164
				0.930016
				0.920596
				0.92741
				0.918663
				0.925367
				0.917439
				0.92396
				0.916983
				0.923248
				0.917336
				0.923276
				0.918513
				0.924069
				0.920508
				0.925629
				0.923294
				0.927942
				0.92682
				0.93097
				0.931021
				0.934662
				0.935821
				0.938953
				0.941133
				0.943767
				0.94687
				0.949024
				0.952944
				0.954644
				0.959267
				0.960544
				0.965758
				0.966646
				0.972341
				0.972875
				0.978944
				0.979161
				0.985502
				0.98544
				0.991956
				0.991653
				0.998254
				0.997745
				1.00435
				1.00367
				1.0102
				1.00938
				1.01576
				1.01484
				1.021
				1.02002
				1.0259
				1.02488
				1.03043
				1.0294
				1.03456
				1.03355
				1.03828
				1.03731
				1.04156
				1.04067
				1.0444
				1.04361
				1.04679
				1.04612
				1.04871
				1.04819
				1.05015
				1.0498
				1.05112
				1.05096
				1.0516
				1.05166
				1.0516
				1.05189
				1.05112
				1.05166
				1.05015
				1.05096
				1.04871
				1.0498
				1.04679
				1.04819
				1.0444
				1.04612
				1.04156
				1.04361
				1.03828
				1.04067
				1.03456
				1.03731
				1.03043
				1.03355
				1.0259
				1.0294
				1.021
				1.02488
				1.01576
				1.02002
				1.0102
				1.01484
				1.00435
				1.00938
				0.998254
				1.00367
				0.991956
				0.997745
				0.985502
				0.991653
				0.978944
				0.98544
				0.972341
				0.979161
				0.965758
				0.972875
				0.959267
				0.966646
				0.952944
				0.960544
				0.94687
				0.954644
				0.941133
				0.949024
				0.935821
				0.943767
				0.931021
				0.938953
				0.92682
				0.934662
				0.923294
				0.93097
				0.920508
				0.927942
				0.918513
				0.925629
				0.917336
				0.924069
				0.916983
				0.923276
				0.917439
				0.923248
				0.918663
				0.92396
				0.920596
				0.925367
				0.923164
				0.92741
				0.926279
				0.930016
				0.929851
				0.933105
				0.933783
				0.936589
				0.937981
				0.94038
				0.942353
				0.944394
				0.946813
				0.948545
				0.95128
				0.952754
				0.95568
				0.956948
				0.959945
				0.961057
				0.964014
				0.965019
				0.967837
				0.968777
				0.971366
				0.972281
				0.974564
				0.975488
				0.977403
				0.978359
				0.979863
				0.980868
				0.981932
				0.982993
				0.983608
				0.984723
				0.984901
				0.98606
				0.985827
				0.987013
				0.986411
				0.987602
				0.986686
				0.987858
				0.986698
				0.987824
				0.986506
				0.987559
				0.986186
				0.987139
				0.985829
				0.98666
				0.985526
				0.986222
				0.985354
				0.985917
				0.986636
				0.986046
				0.98692
				0.986169
				0.987435
				0.986511
				0.988087
				0.987001
				0.988761
				0.987541
				0.98934
				0.988024
				0.989729
				0.988354
				0.989855
				0.988457
				0.989669
				0.988282
				0.98914
				0.987791
				0.98825
				0.986962
				0.986992
				0.98578
				0.985373
				0.984241
				0.983404
				0.982348
				0.981108
				0.980114
				0.978514
				0.97756
				0.975655
				0.974713
				0.97257
				0.971605
				0.969303
				0.968278
				0.965901
				0.964775
				0.962416
				0.961146
				0.958903
				0.957446
				0.955424
				0.953738
				0.952042
				0.950084
				0.948826
				0.946557
				0.945846
				0.94323
				0.943173
				0.94018
				0.940879
				0.937485
				0.939031
				0.935221
				0.937691
				0.933459
				0.936912
				0.932263
				0.936734
				0.931686
				0.937185
				0.931766
				0.938275
				0.932525
				0.939998
				0.933965
				0.942332
				0.936072
				0.945241
				0.938813
				0.948675
				0.942142
				0.952578
				0.946
				0.956886
				0.95032
				0.96153
				0.955031
				0.966444
				0.960059
				0.971558
				0.965332
				0.976809
				0.970779
				0.982134
				0.976332
				0.987478
				0.98193
				0.992786
				0.987513
				0.998011
				0.99303
				1.00311
				0.998432
				1.00804
				1.00368
				1.01278
				1.00873
				1.01728
				1.01355
				1.02152
				1.01811
				1.02549
				1.02239
				1.02915
				1.02637
				1.03248
				1.03001
				1.03549
				1.03332
				1.03814
				1.03626
				1.04043
				1.03883
				1.04236
				1.04103
				1.04391
				1.04283
				1.04507
				1.04425
				1.04585
				1.04526
				1.04624
				1.04587
				1.04624
				1.04607
				1.04585
				1.04587
				1.04507
				1.04526
				1.04391
				1.04425
				1.04236
				1.04283
				1.04043
				1.04103
				1.03814
				1.03883
				1.03549
				1.03626
				1.03248
				1.03332
				1.02915
				1.03001
				1.02549
				1.02637
				1.02152
				1.02239
				1.01728
				1.01811
				1.01278
				1.01355
				1.00804
				1.00873
				1.00311
				1.00368
				0.998012
				0.998432
				0.992786
				0.99303
				0.987478
				0.987513
				0.982134
				0.981929
				0.976809
				0.976332
				0.971558
				0.970779
				0.966443
				0.965332
				0.96153
				0.960059
				0.956886
				0.955031
				0.952579
				0.95032
				0.948675
				0.946
				0.945241
				0.942142
				0.942332
				0.938813
				0.939998
				0.936072
				0.938275
				0.933965
				0.937185
				0.932525
				0.936734
				0.931766
				0.936912
				0.931686
				0.937691
				0.932263
				0.939031
				0.933459
				0.940879
				0.935221
				0.943173
				0.937485
				0.945846
				0.94018
				0.948826
				0.94323
				0.952042
				0.946557
				0.955424
				0.950084
				0.958903
				0.953738
				0.962416
				0.957446
				0.965901
				0.961146
				0.969303
				0.964775
				0.97257
				0.968278
				0.975655
				0.971605
				0.978514
				0.974713
				0.981108
				0.97756
				0.983404
				0.980114
				0.985373
				0.982348
				0.986992
				0.984241
				0.98825
				0.98578
				0.98914
				0.986962
				0.989669
				0.987791
				0.989855
				0.988282
				0.989729
				0.988457
				0.98934
				0.988354
				0.988761
				0.988024
				0.988087
				0.987541
				0.987435
				0.987001
				0.98692
				0.986511
				0.986637
				0.986169
				0.986541
				0.987125
				0.986851
				0.987308
				0.987414
				0.987827
				0.988125
				0.98859
				0.988861
				0.989469
				0.989502
				0.990325
				0.989953
				0.991035
				0.990147
				0.991507
				0.990044
				0.99168
				0.989618
				0.99152
				0.98886
				0.991013
				0.987769
				0.990157
				0.986352
				0.988962
				0.984627
				0.987446
				0.982614
				0.985635
				0.98034
				0.983556
				0.977836
				0.981243
				0.975138
				0.97873
				0.972283
				0.976056
				0.969313
				0.973261
				0.966275
				0.970387
				0.963217
				0.967481
				0.960192
				0.964591
				0.957258
				0.961768
				0.954473
				0.959069
				0.951899
				0.956548
				0.949598
				0.954265
				0.947634
				0.952277
				0.946064
				0.95064
				0.944942
				0.949405
				0.944314
				0.948617
				0.944213
				0.948314
				0.944664
				0.948521
				0.945673
				0.949252
				0.947237
				0.950507
				0.949334
				0.952276
				0.951932
				0.954533
				0.954989
				0.957245
				0.958455
				0.960366
				0.962272
				0.963849
				0.966382
				0.967638
				0.970723
				0.971678
				0.975236
				0.975912
				0.979865
				0.980285
				0.984553
				0.984744
				0.989251
				0.989238
				0.993913
				0.993723
				0.998496
				0.998155
				1.00296
				1.0025
				1.00728
				1.00671
				1.01141
				1.01077
				1.01534
				1.01464
				1.01904
				1.01831
				1.02248
				1.02174
				1.02566
				1.02493
				1.02856
				1.02786
				1.03117
				1.03051
				1.03346
				1.03287
				1.03545
				1.03493
				1.03711
				1.03669
				1.03845
				1.03814
				1.03946
				1.03927
				1.04013
				1.04008
				1.04047
				1.04056
				1.04047
				1.04073
				1.04013
				1.04056
				1.03946
				1.04008
				1.03845
				1.03927
				1.03711
				1.03814
				1.03545
				1.03669
				1.03346
				1.03493
				1.03117
				1.03287
				1.02856
				1.03051
				1.02566
				1.02786
				1.02248
				1.02493
				1.01904
				1.02174
				1.01534
				1.01831
				1.01141
				1.01464
				1.00728
				1.01077
				1.00296
				1.00671
				0.998496
				1.0025
				0.993913
				0.998154
				0.989251
				0.993723
				0.984553
				0.989238
				0.979865
				0.984743
				0.975236
				0.980285
				0.970723
				0.975912
				0.966382
				0.971678
				0.962272
				0.967638
				0.958455
				0.963849
				0.95499
				0.960367
				0.951932
				0.957245
				0.949334
				0.954533
				0.947237
				0.952276
				0.945673
				0.950507
				0.944664
				0.949252
				0.944213
				0.948521
				0.944314
				0.948314
				0.944942
				0.948617
				0.946064
				0.949405
				0.947634
				0.95064
				0.949598
				0.952277
				0.951899
				0.954265
				0.954473
				0.956548
				0.957258
				0.959069
				0.960192
				0.961768
				0.963217
				0.964591
				0.966275
				0.967481
				0.969313
				0.970387
				0.972283
				0.973261
				0.975138
				0.976056
				0.977836
				0.97873
				0.98034
				0.981243
				0.982614
				0.983556
				0.984627
				0.985635
				0.986352
				0.987446
				0.987769
				0.988962
				0.98886
				0.990157
				0.989618
				0.991013
				0.990044
				0.99152
				0.990147
				0.99168
				0.989953
				0.991507
				0.989502
				0.991035
				0.988861
				0.990325
				0.988125
				0.989469
				0.987414
				0.98859
				0.986851
				0.987827
				0.986541
				0.987308
				0.987451
				0.986709
				0.987889
				0.986907
				0.988688
				0.987467
				0.989715
				0.988289
				0.990806
				0.989233
				0.991808
				0.990154
				0.992599
				0.990928
				0.993101
				0.991465
				0.993273
				0.991714
				0.993102
				0.991647
				0.992592
				0.991258
				0.991758
				0.99055
				0.990626
				0.989537
				0.989222
				0.988238
				0.987576
				0.986678
				0.985722
				0.984884
				0.983692
				0.982885
				0.981519
				0.980714
				0.979238
				0.978404
				0.976884
				0.97599
				0.974496