<VTKFile type="UnstructuredGrid" version="0.1" byte_order="LittleEndian">
<UnstructuredGrid>
	<Piece NumberOfPoints="288" NumberOfCells="512">
		<CellData Scalars="density" Vectors="velocity">
			<DataArray type="Float64" Name="density" Format="ascii">
				0.91648
				0.919087
				0.914045
				0.918479
				0.907868
				0.915882
				0.897068
				0.910018
				0.882473
				0.900727
				0.866932
				0.88958
				0.855318
				0.879894
				0.853699
				0.876367
				0.866806
				0.883573
				0.894969
				0.903466
				0.933798
				0.93407
				0.976864
				0.970716
				1.01814
				1.00816
				1.05291
				1.04186
				1.07783
				1.06833
				1.09081
				1.08515
				1.09081
				1.09091
				1.07783
				1.08515
				1.05291
				1.06833
				1.01814
				1.04186
				0.976864
				1.00816
				0.933798
				0.970716
				0.894969
				0.93407
				0.866806
				0.903466
				0.853699
				0.883573
				0.855318
				0.876367
				0.866932
				0.879894
				0.882473
				0.88958
				0.897068
				0.900727
				0.907868
				0.910018
				0.914045
				0.915882
				0.91648
				0.918479
				0.942236
				0.938513
				0.943831
				0.938937
				0.94488
				0.939036
				0.943434
				0.936751
				0.939298
				0.93129
				0.934037
				0.92365
				0.930525
				0.916375
				0.932085
				0.913166
				0.941006
				0.917682
				0.957253
				0.93156
				0.978551
				0.953298
				1.00164
				0.979255
				1.02345
				1.00545
				1.04163
				1.02865
				1.05455
				1.04658
				1.06124
				1.05784
				1.06124
				1.06167
				1.05455
				1.05784
				1.04163
				1.04658
				1.02345
				1.02865
				1.00164
				1.00545
				0.978551
				0.979255
				0.957253
				0.953298
				0.941006
				0.93156
				0.932085
				0.917682
				0.930525
				0.913166
				0.934037
				0.916375
				0.939298
				0.92365
				0.943434
				0.93129
				0.94488
				0.936751
				0.943831
				0.939036
				0.942236
				0.938937
				0.956384
				0.960064
				0.959069
				0.962065
				0.961769
				0.966208
				0.962294
				0.969177
				0.960534
				0.969484
				0.957815
				0.967843
				0.95616
				0.966052
				0.957693
				0.966142
				0.963779
				0.969701
				0.974299
				0.977248
				0.987738
				0.988025
				1.002
				1.00042
				1.01519
				1.01269
				1.02595
				1.0234
				1.03346
				1.03159
				1.0373
				1.03668
				1.0373
				1.03841
				1.03346
				1.03668
				1.02595
				1.03159
				1.01519
				1.0234
				1.002
				1.01269
				0.987738
				1.00042
				0.974299
				0.988025
				0.963779
				0.977248
				0.957693
				0.969701
				0.95616
				0.966142
				0.957815
				0.966052
				0.960534
				0.967843
				0.962294
				0.969484
				0.961769
				0.969177
				0.959069
				0.966208
				0.956384
				0.962066
				0.972397
				0.967745
				0.97679
				0.970063
				0.981804
				0.974898
				0.984594
				0.978739
				0.985175
				0.980309
				0.984863
				0.980345
				0.984975
				0.980147
				0.986465
				0.980945
				0.989778
				0.983593
				0.994755
				0.988298
				1.00075
				0.994575
				1.00692
				1.00152
				1.01252
				1.00818
				1.01702
				1.01385
				1.02014
				1.01809
				1.02172
				1.02068
				1.02172
				1.02155
				1.02014
				1.02068
				1.01702
				1.01809
				1.01252
				1.01385
				1.00692
				1.00818
				1.00075
				1.00152
				0.994755
				0.994575
				0.989778
				0.988298
				0.986465
				0.983593
				0.984975
				0.980945
				0.984863
				0.980147
				0.985175
				0.980345
				0.984594
				0.980309
				0.981804
				0.978739
				0.97679
				0.974898
				0.972397
				0.970063
				0.977233
				0.979902
				0.98163
				0.982416
				0.986654
				0.987478
				0.989733
				0.991313
				0.991018
				0.992994
				0.991547
				0.993493
				0.992169
				0.993818
				0.993421
				0.994584
				0.995515
				0.996089
				0.998335
				0.998344
				1.00154
				1.00112
				1.0047
				1.00405
				1.00748
				1.0068
				1.00967
				1.00909
				1.01115
				1.01079
				1.01189
				1.01182
				1.01189
				1.01216
				1.01115
				1.01182
				1.00967
				1.01079
				1.00748
				1.00909
				1.0047
				1.0068
				1.00154
				1.00405
				0.998335
				1.00112
				0.995515
				0.998344
				0.993421
				0.996089
				0.992169
				0.994584
				0.991547
				0.993818
				0.991018
				0.993493
				0.989733
				0.992994
				0.986654
				0.991313
				0.98163
				0.987478
				0.977233
				0.982416
				0.986853
				0.983723
				0.990463
				0.986011
				0.994257
				0.990562
				0.996323
				0.994019
				0.997143
				0.995713
				0.997571
				0.99647
				0.998074
				0.997005
				0.99885
				0.997694
				0.999936
				0.998698
				1.00126
				1.00001
				1.00267
				1.00151
				1.00401
				1.00301
				1.00517
				1.00437
				1.00606
				1.00547
				1.00665
				1.00627
				1.00695
				1.00674
				1.00695
				1.0069
				1.00665
				1.00674
				1.00606
				1.00627
				1.00517
				1.00547
				1.00401
				1.00437
				1.00267
				1.00301
				1.00126
				1.00151
				0.999936
				1.00001
				0.99885
				0.998698
				0.998074
				0.997694
				0.997571
				0.997005
				0.997143
				0.99647
				0.996323
				0.995713
				0.994257
				0.994019
				0.990463
				0.990562
				0.986853
				0.986011
				0.989724
				0.991013
				0.992758
				0.992604
				0.995904
				0.995593
				0.997655
				0.997652
				0.998453
				0.998586
				0.998935
				0.999058
				0.999409
				0.999473
				0.999986
				0.999974
				1.00068
				1.00059
				1.00145
				1.0013
				1.00223
				1.00204
				1.00293
				1.00274
				1.0035
				1.00334
				1.00394
				1.00382
				1.00422
				1.00415
				1.00436
				1.00435
				1.00436
				1.00442
				1.00422
				1.00435
				1.00394
				1.00415
				1.0035
				1.00382
				1.00293
				1.00334
				1.00223
				1.00274
				1.00145
				1.00204
				1.00068
				1.0013
				0.999986
				1.00059
				0.999409
				0.999974
				0.998935
				0.999473
				0.998453
				0.999058
				0.997655
				0.998586
				0.995904
				0.997652
				0.992758
				0.995593
				0.989724
				0.992604
				0.99422
				0.992761
				0.996019
				0.99403
				0.997863
				0.996434
				0.998956
				0.998176
				0.999588
				0.999102
				1.00008
				0.99967
				1.00054
				1.00014
				1.001
				1.00061
				1.00147
				1.00109
				1.00191
				1.00157
				1.0023
				1.00201
				1.00262
				1.00239
				1.00286
				1.0027
				1.00304
				1.00292
				1.00315
				1.00307
				1.0032
				1.00316
				1.0032
				1.00319
				1.00315
				1.00316
				1.00304
				1.00307
				1.00286
				1.00292
				1.00262
				1.0027
				1.0023
				1.00239
				1.00191
				1.00201
				1.00147
				1.00157
				1.001
				1.00109
				1.00054
				1.00061
				1.00008
				1.00014
				0.999588
				0.99967
				0.998956
				0.999102
				0.997863
				0.998176
				0.996019
				0.996434
				0.99422
				0.99403
			</DataArray>
			<DataArray type="Float64" Name="mach-number" Format="ascii">
				0.0362965
				0.058997
				0.0988101
				0.089945
				0.171674
				0.15235
				0.252498
				0.226897
				0.336848
				0.307057
				0.417589
				0.386267
				0.485074
				0.456278
				0.528388
				0.507605
				0.539312
				0.531846
				0.516995
				0.525421
				0.467685
				0.491143
				0.39978
				0.435637
				0.320156
				0.365835
				0.233515
				0.287565
				0.143195
				0.206245
				0.0542108
				0.130855
				0.0542109
				0.0918928
				0.143195
				0.130855
				0.233515
				0.206245
				0.320156
				0.287565
				0.39978
				0.365835
				0.467685
				0.435637
				0.516995
				0.491143
				0.539312
				0.525421
				0.528388
				0.531846
				0.485074
				0.507605
				0.417589
				0.456278
				0.336848
				0.386266
				0.252498
				0.307057
				0.171674
				0.226897
				0.09881
				0.15235
				0.0362965
				0.0899449
				0.139576
				0.0950808
				0.179088
				0.120379
				0.238096
				0.17739
				0.302462
				0.246179
				0.364626
				0.317206
				0.419051
				0.3838
				0.460405
				0.439634
				0.48364
				0.478298
				0.4855
				0.49433
				0.466274
				0.485524
				0.429748
				0.454238
				0.381426
				0.405889
				0.327092
				0.346507
				0.272795
				0.281758
				0.226114
				0.217909
				0.19761
				0.165216
				0.19761
				0.142835
				0.226114
				0.165216
				0.272795
				0.217908
				0.327093
				0.281758
				0.381426
				0.346507
				0.429748
				0.405889
				0.466274
				0.454238
				0.4855
				0.485524
				0.48364
				0.49433
				0.460405
				0.478298
				0.41905
				0.439634
				0.364626
				0.383799
				0.302462
				0.317206
				0.238096
				0.24618
				0.179088
				0.17739
				0.139576
				0.120379
				0.179253
				0.205164
				0.214176
				0.22289
				0.266062
				0.264958
				0.319748
				0.313385
				0.367668
				0.357976
				0.40621
				0.394879
				0.432932
				0.42226
				0.445699
				0.438447
				0.443283
				0.441999
				0.426439
				0.432731
				0.398099
				0.412437
				0.362519
				0.384548
				0.324373
				0.353211
				0.288487
				0.322627
				0.259965
				0.296816
				0.243916
				0.279441
				0.243916
				0.273289
				0.259965
				0.279441
				0.288487
				0.296816
				0.324373
				0.322627
				0.362519
				0.353211
				0.398099
				0.384548
				0.426439
				0.412437
				0.443283
				0.432731
				0.445699
				0.441999
				0.432932
				0.438447
				0.40621
				0.42226
				0.367668
				0.394879
				0.319748
				0.357976
				0.266062
				0.313385
				0.214176
				0.264958
				0.179253
				0.22289
				0.26774
				0.242242
				0.293696
				0.257737
				0.329059
				0.293831
				0.360486
				0.332989
				0.384135
				0.365723
				0.400362
				0.389953
				0.409733
				0.405897
				0.41229
				0.413696
				0.408138
				0.413292
				0.398132
				0.405136
				0.384028
				0.390705
				0.368099
				0.372377
				0.352603
				0.352888
				0.33942
				0.334819
				0.329919
				0.320314
				0.324963
				0.310959
				0.324963
				0.30773
				0.329919
				0.310959
				0.33942
				0.320314
				0.352603
				0.334819
				0.368099
				0.352888
				0.384028
				0.372377
				0.398132
				0.390705
				0.408138
				0.405136
				0.41229
				0.413292
				0.409733
				0.413696
				0.400362
				0.405897
				0.384135
				0.389953
				0.360486
				0.365723
				0.329059
				0.332989
				0.293696
				0.293831
				0.26774
				0.257737
				0.296099
				0.307181
				0.317919
				0.318415
				0.346184
				0.342719
				0.368986
				0.365374
				0.384033
				0.38084
				0.392905
				0.39014
				0.396985
				0.39502
				0.396898
				0.39632
				0.39307
				0.394393
				0.386219
				0.389684
				0.377474
				0.382992
				0.368159
				0.375382
				0.359489
				0.367921
				0.352375
				0.361464
				0.347391
				0.356571
				0.344839
				0.353548
				0.344839
				0.352528
				0.347391
				0.353548
				0.352375
				0.356571
				0.359489
				0.361464
				0.368159
				0.367921
				0.377474
				0.375382
				0.386219
				0.382992
				0.39307
				0.389684
				0.396898
				0.394393
				0.396985
				0.39632
				0.392905
				0.39502
				0.384033
				0.39014
				0.368986
				0.38084
				0.346184
				0.365374
				0.317919
				0.342719
				0.296099
				0.318415
				0.339214
				0.327625
				0.353215
				0.336724
				0.36941
				0.355814
				0.38023
				0.372348
				0.385849
				0.382306
				0.388321
				0.387322
				0.388816
				0.389286
				0.387782
				0.38911
				0.385492
				0.387202
				0.382298
				0.383927
				0.378663
				0.379782
				0.375068
				0.375357
				0.371901
				0.371197
				0.369408
				0.367708
				0.367713
				0.365124
				0.36686
				0.363553
				0.36686
				0.363027
				0.367713
				0.363553
				0.369408
				0.365124
				0.371901
				0.367708
				0.375068
				0.371197
				0.378663
				0.375357
				0.382298
				0.379782
				0.385492
				0.383927
				0.387782
				0.387202
				0.388816
				0.38911
				0.388321
				0.389286
				0.385849
				0.387322
				0.38023
				0.382306
				0.36941
				0.372348
				0.353215
				0.355814
				0.339214
				0.336724
				0.352631
				0.357318
				0.363107
				0.362461
				0.374713
				0.37258
				0.381786
				0.380233
				0.384878
				0.383941
				0.385804
				0.385262
				0.385537
				0.385365
				0.384456
				0.38471
				0.382772
				0.383487
				0.380705
				0.381862
				0.378513
				0.380038
				0.376441
				0.378229
				0.374671
				0.376612
				0.37331
				0.375303
				0.372398
				0.374357
				0.371944
				0.37379
				0.371944
				0.373602
				0.372398
				0.37379
				0.37331
				0.374357
				0.374671
				0.375303
				0.376441
				0.376612
				0.378513
				0.378229
				0.380705
				0.380038
				0.382772
				0.381862
				0.384456
				0.383487
				0.385537
				0.38471
				0.385804
				0.385365
				0.384878
				0.385262
				0.381786
				0.383941
				0.374713
				0.380233
				0.363107
				0.37258
				0.352631
				0.362461
				0.372061
				0.366972
				0.376121
				0.370314
				0.380318
				0.376759
				0.382548
				0.381364
				0.383257
				0.383293
				0.383214
				0.383699
				0.382783
				0.383408
				0.3821
				0.382739
				0.381248
				0.381822
				0.380316
				0.380753
				0.379393
				0.379639
				0.378559
				0.378585
				0.377867
				0.377672
				0.377343
				0.376947
				0.376995
				0.37643
				0.376823
				0.376123
				0.376823
				0.376021
				0.376995
				0.376123
				0.377343
				0.37643
				0.377867
				0.376947
				0.378559
				0.377672
				0.379393
				0.378585
				0.380316
				0.379639
				0.381248
				0.380753
				0.3821
				0.381822
				0.382783
				0.382739
				0.383214
				0.383408
				0.383257
				0.383699
				0.382548
				0.383293
				0.380318
				0.381364
				0.376121
				0.376759
				0.372061
				0.370314
			</DataArray>
			<DataArray type="Float64" Name="pressure" Format="ascii">
				4.6676
				4.68384
				4.63386
				4.66953
				4.56641
				4.627
				4.46714
				4.5576
				4.34444
				4.46593
				4.21821
				4.36452
				4.12132
				4.27677
				4.09388
				4.23466
				4.16712
				4.26858
				4.34457
				4.39166
				4.59941
				4.5916
				4.8901
				4.83798
				5.17521
				5.09522
				5.42004
				5.33076
				5.5981
				5.51822
				5.69161
				5.63843
				5.69161
				5.6798
				5.5981
				5.63843
				5.42004
				5.51822
				5.17521
				5.33075
				4.8901
				5.09522
				4.59941
				4.83798
				4.34457
				4.5916
				4.16712
				4.39166
				4.09388
				4.26858
				4.12132
				4.23466
				4.21821
				4.27677
				4.34444
				4.36452
				4.46714
				4.46593
				4.56641
				4.5576
				4.63386
				4.627
				4.6676
				4.66953
				4.80735
				4.7941
				4.79247
				4.78408
				4.7617
				4.75343
				4.7148
				4.7018
				4.65601
				4.63213
				4.59702
				4.55376
				4.55658
				4.48422
				4.55572
				4.44768
				4.60859
				4.46758
				4.71433
				4.55427
				4.85736
				4.69787
				5.0153
				4.87412
				5.16652
				5.05564
				5.29377
				5.21903
				5.38485
				5.34699
				5.43219
				5.42804
				5.43219
				5.45575
				5.38485
				5.42804
				5.29377
				5.34699
				5.16652
				5.21903
				5.0153
				5.05564
				4.85736
				4.87412
				4.71433
				4.69787
				4.60859
				4.55427
				4.55572
				4.46758
				4.55658
				4.44768
				4.59702
				4.48422
				4.65601
				4.55376
				4.7148
				4.63213
				4.7617
				4.7018
				4.79247
				4.75343
				4.80735
				4.78408
				4.86892
				4.88702
				4.85713
				4.88336
				4.83356
				4.8715
				4.79979
				4.85013
				4.76022
				4.82034
				4.72279
				4.78766
				4.69891
				4.76155
				4.70098
				4.75317
				4.73697
				4.77155
				4.80547
				4.81923
				4.89595
				4.89057
				4.99381
				4.97433
				5.08552
				5.0582
				5.16111
				5.13201
				5.21426
				5.18872
				5.24156
				5.22415
				5.24156
				5.23616
				5.21426
				5.22415
				5.16111
				5.18872
				5.08552
				5.13201
				4.99381
				5.0582
				4.89595
				4.97433
				4.80547
				4.89057
				4.73697
				4.81923
				4.70098
				4.77155
				4.69891
				4.75317
				4.72279
				4.76155
				4.76022
				4.78766
				4.79979
				4.82034
				4.83356
				4.85013
				4.85713
				4.8715
				4.86892
				4.88336
				4.91473
				4.89938
				4.91222
				4.89707
				4.90539
				4.88987
				4.8935
				4.8778
				4.87882
				4.86229
				4.86598
				4.84657
				4.86035
				4.83557
				4.86654
				4.83504
				4.88665
				4.84939
				4.91913
				4.87933
				4.95929
				4.92117
				5.00117
				4.96842
				5.03946
				5.01438
				5.07043
				5.05381
				5.09191
				5.08346
				5.10284
				5.10169
				5.10284
				5.10782
				5.09191
				5.10169
				5.07043
				5.08346
				5.03946
				5.05381
				5.00117
				5.01438
				4.95929
				4.96842
				4.91913
				4.92117
				4.88665
				4.87933
				4.86654
				4.84939
				4.86035
				4.83504
				4.86598
				4.83557
				4.87882
				4.84657
				4.8935
				4.86229
				4.90539
				4.8778
				4.91222
				4.88987
				4.91473
				4.89707
				4.9101
				4.92297
				4.9103
				4.92343
				4.90935
				4.92345
				4.90643
				4.92114
				4.90232
				4.91667
				4.89917
				4.91219
				4.89969
				4.9103
				4.90611
				4.91323
				4.91924
				4.92217
				4.93799
				4.93681
				4.95977
				4.95539
				4.98159
				4.97532
				5.00092
				4.99409
				5.01616
				5.00985
				5.02652
				5.02153
				5.03173
				5.02864
				5.03173
				5.03102
				5.02652
				5.02864
				5.01616
				5.02153
				5.00092
				5.00985
				4.98159
				4.99409
				4.95977
				4.97532
				4.93799
				4.95539
				4.91924
				4.93681
				4.90611
				4.92217
				4.89969
				4.91323
				4.89917
				4.9103
				4.90232
				4.91219
				4.90643
				4.91667
				4.90935
				4.92114
				4.9103
				4.92345
				4.9101
				4.92343
				4.92802
				4.918
				4.9298
				4.91946
				4.93135
				4.9225
				4.93159
				4.92484
				4.93122
				4.9258
				4.93159
				4.9263
				4.9338
				4.92778
				4.93845
				4.93141
				4.94555
				4.93773
				4.95445
				4.94649
				4.96406
				4.95672
				4.97328
				4.96714
				4.98121
				4.97659
				4.98736
				4.98429
				4.99148
				4.98987
				4.99355
				4.99321
				4.99355
				4.99432
				4.99148
				4.99321
				4.98736
				4.98987
				4.98121
				4.98429
				4.97328
				4.97659
				4.96406
				4.96714
				4.95445
				4.95672
				4.94555
				4.94649
				4.93845
				4.93773
				4.9338
				4.93141
				4.93159
				4.92778
				4.93122
				4.9263
				4.93159
				4.9258
				4.93135
				4.92484
				4.9298
				4.9225
				4.92802
				4.91946
				4.92534
				4.9314
				4.9285
				4.9326
				4.93237
				4.93507
				4.93521
				4.93716
				4.93719
				4.93863
				4.93917
				4.94014
				4.94185
				4.94229
				4.94556
				4.9454
				4.95025
				4.94947
				4.95554
				4.95425
				4.96088
				4.95929
				4.96576
				4.96409
				4.96981
				4.96825
				4.97284
				4.97155
				4.97484
				4.97389
				4.97582
				4.97527
				4.97582
				4.97573
				4.97484
				4.97527
				4.97284
				4.97389
				4.96981
				4.97155
				4.96576
				4.96825
				4.96088
				4.96409
				4.95554
				4.95929
				4.95025
				4.95425
				4.94556
				4.94947
				4.94185
				4.9454
				4.93917
				4.94229
				4.93719
				4.94014
				4.93521
				4.93863
				4.93237
				4.93716
				4.9285
				4.93507
				4.92534
				4.9326
				4.93064
				4.92657
				4.93342
				4.92858
				4.93713
				4.93302
				4.94047
				4.93736
				4.94339
				4.9408
				4.94619
				4.94371
				4.9491
				4.94655
				4.95214
				4.94956
				4.95524
				4.95275
				4.95821
				4.956
				4.96089
				4.95906
				4.96312
				4.96174
				4.96485
				4.96389
				4.96609
				4.96549
				4.96687
				4.96657
				4.96725
				4.96718
				4.96725
				4.96738
				4.96687
				4.96718
				4.96609
				4.96657
				4.96485
				4.96549
				4.96312
				4.96389
				4.96089
				4.96174
				4.95821
				4.95906
				4.95524
				4.956
				4.95214
				4.95275
				4.9491
				4.94956
				4.94619
				4.94655
				4.94339
				4.94371
				4.94047
				4.9408
				4.93713
				4.93736
				4.93342
				4.93302
				4.93064
				4.92858
			</DataArray>
			<DataArray type="Float64" Name="velocity" NumberOfComponents="3" Format="ascii">
				0.0580993 -0.0775757 0
				0.157586 -3.45049e-08 0
				0.128386 -0.22981 0
				0.196276 -0.138049 0
				0.269944 -0.366966 0
				0.307683 -0.263615 0
				0.477221 -0.465549 0
				0.480328 -0.36091 0
				0.73091 -0.497804 0
				0.697303 -0.41016 0
				0.995868 -0.442851 0
				0.933137 -0.392543 0
				1.22454 -0.296291 0
				1.15232 -0.298079 0
				1.36694 -0.0766577 0
				1.31356 -0.13273 0
				1.38819 0.174707 0
				1.38099 0.0774005 0
				1.28526 0.405727 0
				1.3396 0.290138 0
				1.08659 0.572376 0
				1.20276 0.46201 0
				0.835563 0.649557 0
				1.00359 0.563024 0
				0.576001 0.630582 0
				0.780721 0.580892 0
				0.345792 0.522882 0
				0.569332 0.517893 0
				0.174879 0.344262 0
				0.397763 0.386506 0
				0.0840696 0.12 0
				0.286549 0.206033 0
				0.0840697 -0.12 0
				0.248095 -1.63318e-07 0
				0.174879 -0.344262 0
				0.286549 -0.206033 0
				0.345793 -0.522883 0
				0.397764 -0.386506 0
				0.576001 -0.630582 0
				0.569332 -0.517893 0
				0.835563 -0.649557 0
				0.780721 -0.580891 0
				1.08659 -0.572376 0
				1.00359 -0.563024 0
				1.28526 -0.405727 0
				1.20276 -0.46201 0
				1.38819 -0.174707 0
				1.3396 -0.290138 0
				1.36694 0.0766577 0
				1.38099 -0.0774004 0
				1.22454 0.296291 0
				1.31356 0.13273 0
				0.995868 0.442851 0
				1.15232 0.298079 0
				0.73091 0.497804 0
				0.933137 0.392543 0
				0.477221 0.465549 0
				0.697303 0.41016 0
				0.269944 0.366966 0
				0.480328 0.36091 0
				0.128386 0.22981 0
				0.307683 0.263615 0
				0.0580993 0.0775756 0
				0.196276 0.138049 0
				0.368713 -0.056615 0
				0.254267 -5.05818e-08 0
				0.450648 -0.157832 0
				0.296105 -0.125264 0
				0.589415 -0.229241 0
				0.411493 -0.231679 0
				0.755844 -0.262224 0
				0.577751 -0.303428 0
				0.92694 -0.251846 0
				0.770201 -0.32779 0
				1.08243 -0.195761 0
				0.963803 -0.296311 0
				1.20157 -0.0970427 0
				1.13179 -0.207778 0
				1.26472 0.0324793 0
				1.24696 -0.0709891 0
				1.25973 0.170964 0
				1.28716 0.0932555 0
				1.18912 0.29153 0
				1.24448 0.254386 0
				1.07014 0.371798 0
				1.13053 0.381373 0
				0.927243 0.400082 0
				0.971031 0.452884 0
				0.784395 0.375312 0
				0.795641 0.46062 0
				0.66112 0.303979 0
				0.631022 0.407076 0
				0.571532 0.197116 0
				0.498328 0.302165 0
				0.524585 0.068192 0
				0.412673 0.160597 0
				0.524585 -0.0681921 0
				0.383115 -5.24229e-08 0
				0.571532 -0.197116 0
				0.412673 -0.160597 0
				0.66112 -0.303979 0
				0.498327 -0.302165 0
				0.784395 -0.375312 0
				0.631022 -0.407076 0
				0.927243 -0.400082 0
				0.795641 -0.46062 0
				1.07014 -0.371798 0
				0.971031 -0.452884 0
				1.18912 -0.29153 0
				1.13053 -0.381373 0
				1.25973 -0.170964 0
				1.24448 -0.254386 0
				1.26472 -0.0324793 0
				1.28716 -0.0932555 0
				1.20157 0.0970428 0
				1.24696 0.0709891 0
				1.08242 0.195761 0
				1.13179 0.207779 0
				0.92694 0.251846 0
				0.963802 0.296311 0
				0.755844 0.262225 0
				0.770201 0.32779 0
				0.589415 0.229241 0
				0.577751 0.303428 0
				0.450648 0.157832 0
				0.411494 0.231679 0
				0.368712 0.0566148 0
				0.296105 0.125263 0
				0.476283 -0.0465626 0
				0.547693 1.01171e-07 0
				0.556109 -0.126413 0
				0.589031 -0.0779972 0
				0.683698 -0.175007 0
				0.691752 -0.130443 0
				0.823744 -0.1881 0
				0.815808 -0.150099 0
				0.953828 -0.167646 0
				0.933857 -0.141172 0
				1.06082 -0.117155 0
				1.03353 -0.108082 0
				1.1348 -0.0419788 0
				1.1079 -0.0541715 0
				1.16737 0.0487627 0
				1.15057 0.0154462 0
				1.15422 0.14103 0
				1.15649 0.0915043 0
				1.0991 0.218347 0
				1.12556 0.161059 0
				1.0141 0.267193 0
				1.06493 0.211435 0
				0.915476 0.280836 0
				0.987108 0.234542 0
				0.818908 0.259424 0
				0.905678 0.228357 0
				0.73682 0.207918 0
				0.832138 0.195702 0
				0.677819 0.133919 0
				0.7747 0.142194 0
				0.647112 0.0461753 0
				0.73847 0.0746097 0
				0.647112 -0.0461753 0
				0.726121 -4.29977e-08 0
				0.677819 -0.133919 0
				0.73847 -0.0746097 0
				0.73682 -0.207918 0
				0.7747 -0.142194 0
				0.818909 -0.259424 0
				0.832138 -0.195702 0
				0.915476 -0.280836 0
				0.905678 -0.228357 0
				1.0141 -0.267193 0
				0.987108 -0.234542 0
				1.0991 -0.218347 0
				1.06493 -0.211435 0
				1.15422 -0.14103 0
				1.12556 -0.161059 0
				1.16737 -0.0487626 0
				1.15649 -0.0915042 0
				1.1348 0.0419789 0
				1.15057 -0.0154462 0
				1.06082 0.117155 0
				1.1079 0.0541715 0
				0.953828 0.167646 0
				1.03353 0.108082 0
				0.823744 0.1881 0
				0.933857 0.141172 0
				0.683698 0.175007 0
				0.815808 0.150099 0
				0.556109 0.126413 0
				0.691752 0.130443 0
				0.476284 0.0465627 0
				0.589031 0.0779971 0
				0.71169 -0.0270791 0
				0.644916 -1.51083e-08 0
				0.776387 -0.067242 0
				0.682748 -0.0577625 0
				0.866589 -0.080126 0
				0.77317 -0.0920396 0
				0.948153 -0.072175 0
				0.874051 -0.0984108 0
				1.01012 -0.0521015 0
				0.960053 -0.0841215 0
				1.0527 -0.023829 0
				1.02438 -0.0557143 0
				1.07688 0.0105514 0
				1.0666 -0.0170964 0
				1.08246 0.0477791 0
				1.08637 0.0280093 0
				1.06983 0.0826733 0
				1.08328 0.0741478 0
				1.04183 0.109394 0
				1.05899 0.114199 0
				1.00395 0.12355 0
				1.01855 0.141428 0
				0.962773 0.123497 0
				0.969552 0.151768 0
				0.924222 0.110186 0
				0.919896 0.144619 0
				0.892573 0.0861762 0
				0.876028 0.122114 0
				0.87042 0.0546261 0
				0.842323 0.0878396 0
				0.859084 0.0186856 0
				0.821305 0.0458191 0
				0.859084 -0.0186857 0
				0.814183 -1.30424e-08 0
				0.87042 -0.0546261 0
				0.821305 -0.0458192 0
				0.892573 -0.0861762 0
				0.842323 -0.0878396 0
				0.924222 -0.110186 0
				0.876028 -0.122114 0
				0.962773 -0.123497 0
				0.919896 -0.144619 0
				1.00395 -0.12355 0
				0.969552 -0.151768 0
				1.04183 -0.109394 0
				1.01855 -0.141428 0
				1.06983 -0.0826733 0
				1.05899 -0.114199 0
				1.08246 -0.0477791 0
				1.08328 -0.0741478 0
				1.07688 -0.0105514 0
				1.08637 -0.0280093 0
				1.0527 0.023829 0
				1.0666 0.0170964 0
				1.01012 0.0521016 0
				1.02438 0.0557144 0
				0.948153 0.072175 0
				0.960053 0.0841215 0
				0.866589 0.0801261 0
				0.874051 0.0984108 0
				0.776387 0.067242 0
				0.77317 0.0920396 0
				0.71169 0.027079 0
				0.682748 0.0577624 0
				0.785082 -0.0194039 0
				0.814668 4.722e-09 0
				0.840045 -0.0462916 0
				0.842839 -0.0313287 0
				0.912274 -0.0509372 0
				0.904444 -0.0430415 0
				0.971221 -0.0406583 0
				0.962514 -0.0371083 0
				1.01035 -0.0239347 0
				1.00241 -0.0240034 0
				1.03336 -0.0042102 0
				1.02642 -0.00870679 0
				1.04369 0.0172101 0
				1.03889 0.00790063 0
				1.04291 0.0386532 0
				1.04195 0.0251432 0
				1.03225 0.0575142 0
				1.03652 0.0413403 0
				1.01385 0.07094 0
				1.02389 0.0541721 0
				0.990934 0.0769079 0
				1.00632 0.0616055 0
				0.967092 0.0748628 0
				0.986723 0.0626605 0
				0.945393 0.0655926 0
				0.967853 0.0575597 0
				0.927939 0.0506654 0
				0.951786 0.0473675 0
				0.915898 0.0318628 0
				0.939773 0.0334849 0
				0.909792 0.0108573 0
				0.93242 0.0172899 0
				0.909792 -0.0108573 0
				0.929953 -9.43312e-09 0
				0.915898 -0.0318628 0
				0.93242 -0.0172899 0
				0.927939 -0.0506654 0
				0.939773 -0.0334849 0
				0.945393 -0.0655926 0
				0.951786 -0.0473675 0
				0.967092 -0.0748628 0
				0.967853 -0.0575598 0
				0.990934 -0.0769079 0
				0.986723 -0.0626605 0
				1.01385 -0.07094 0
				1.00632 -0.0616055 0
				1.03225 -0.0575142 0
				1.02389 -0.0541721 0
				1.04291 -0.0386531 0
				1.03652 -0.0413403 0
				1.04369 -0.0172101 0
				1.04195 -0.0251432 0
				1.03336 0.0042102 0
				1.03889 -0.00790063 0
				1.01035 0.0239347 0
				1.02642 0.00870679 0
				0.971221 0.0406583 0
				1.00241 0.0240034 0
				0.912274 0.0509372 0
				0.962514 0.0371083 0
				0.840045 0.0462916 0
				0.904444 0.0430415 0
				0.785082 0.0194039 0
				0.842839 0.0313287 0
				0.89684 -0.0111162 0
				0.86676 -3.9775e-08 0
				0.932081 -0.0240385 0
				0.88966 -0.0219625 0
				0.973187 -0.0218674 0
				0.938079 -0.0284677 0
				1.00084 -0.0131069 0
				0.980398 -0.021957 0
				1.01526 -0.00400704 0
				1.00605 -0.011349 0
				1.02158 0.00449032 0
				1.01898 -0.000583713 0
				1.02278 0.0126396 0
				1.02398 0.00985782 0
				1.02003 0.0201425 0
				1.02339 0.0197909 0
				1.01404 0.0261982 0
				1.01831 0.0284718 0
				1.00577 0.0299532 0
				1.00972 0.03483 0
				0.996433 0.0309052 0
				0.998978 0.0379709 0
				0.987275 0.0290639 0
				0.98763 0.0375515 0
				0.979264 0.0248495 0
				0.977075 0.0338319 0
				0.972999 0.0188717 0
				0.968299 0.0274691 0
				0.968759 0.0117413 0
				0.961847 0.0192453 0
				0.966633 0.00397995 0
				0.957942 0.00988616 0
				0.966633 -0.00397996 0
				0.956639 -8.47849e-09 0
				0.968759 -0.0117413 0
				0.957942 -0.00988617 0
				0.972999 -0.0188717 0
				0.961847 -0.0192453 0
				0.979264 -0.0248495 0
				0.968299 -0.0274691 0
				0.987275 -0.0290639 0
				0.977075 -0.0338319 0
				0.996433 -0.0309052 0
				0.98763 -0.0375515 0
				1.00577 -0.0299532 0
				0.998978 -0.0379709 0
				1.01404 -0.0261982 0
				1.00972 -0.03483 0
				1.02003 -0.0201424 0
				1.01831 -0.0284718 0
				1.02278 -0.0126396 0
				1.02339 -0.0197909 0
				1.02158 -0.00449032 0
				1.02398 -0.00985782 0
				1.01526 0.00400707 0
				1.01898 0.000583719 0
				1.00084 0.0131069 0
				1.00605 0.011349 0
				0.973187 0.0218674 0
				0.980398 0.021957 0
				0.932081 0.0240385 0
				0.938079 0.0284677 0
				0.89684 0.0111161 0
				0.88966 0.0219624 0
				0.930741 -0.00811728 0
				0.943115 1.91808e-08 0
				0.957114 -0.0172888 0
				0.955952 -0.0127962 0
				0.986575 -0.0151735 0
				0.981379 -0.0152957 0
				1.00469 -0.0084175 0
				1.00078 -0.0104821 0
				1.01266 -0.00181426 0
				1.01026 -0.00464077 0
				1.01505 0.0039001 0
				1.01367 0.000354127 0
				1.01435 0.00894938 0
				1.01394 0.00473251 0
				1.01154 0.0132597 0
				1.01225 0.00862004 0
				1.00719 0.016485 0
				1.0091 0.0117928 0
				1.00187 0.0182628 0
				1.00493 0.0139142 0
				0.996247 0.0184192 0
				1.00026 0.0147493 0
				0.990956 0.0170377 0
				0.995635 0.0142713 0
				0.986457 0.014395 0
				0.991518 0.0126466 0
				0.983005 0.0108426 0
				0.988193 0.0101458 0
				0.980701 0.006711 0
				0.985795 0.00705142 0
				0.979554 0.00226915 0
				0.984361 0.00360567 0
				0.979554 -0.00226916 0
				0.983885 -1.41727e-09 0
				0.980701 -0.00671099 0
				0.984361 -0.00360567 0
				0.983005 -0.0108426 0
				0.985795 -0.00705142 0
				0.986457 -0.014395 0