<VTKFile type="UnstructuredGrid" version="0.1" byte_order="LittleEndian">
<UnstructuredGrid>
	<Piece NumberOfPoints="288" NumberOfCells="512">
		<CellData Scalars="density" Vectors="velocity">
			<DataArray type="Float64" Name="density" Format="ascii">
				0.913772
				0.919193
				0.911182
				0.918594
				0.904685
				0.915808
				0.89351
				0.909934
				0.880739
				0.899623
				0.866045
				0.889401
				0.855327
				0.879745
				0.854443
				0.8763
				0.867777
				0.884343
				0.896838
				0.90483
				0.937083
				0.935353
				0.980913
				0.971502
				1.02246
				1.00979
				1.05927
				1.04638
				1.08492
				1.07176
				1.09834
				1.08819
				1.09834
				1.09383
				1.08492
				1.08819
				1.05927
				1.07176
				1.02246
				1.04637
				0.980913
				1.00979
				0.937083
				0.971502
				0.896838
				0.935353
				0.867778
				0.90483
				0.854443
				0.884344
				0.855327
				0.876301
				0.866046
				0.879745
				0.88074
				0.889402
				0.893511
				0.899624
				0.904691
				0.909937
				0.911204
				0.915821
				0.91379
				0.918629
				0.94338
				0.93987
				0.945303
				0.940636
				0.946011
				0.940315
				0.944716
				0.937845
				0.939451
				0.931453
				0.93504
				0.924648
				0.931071
				0.917152
				0.932923
				0.913649
				0.941423
				0.918052
				0.957139
				0.932052
				0.978436
				0.952998
				1.00167
				0.979562
				1.02583
				1.00485
				1.04368
				1.02853
				1.05619
				1.04669
				1.06253
				1.05827
				1.06253
				1.06228
				1.05619
				1.05827
				1.04368
				1.04669
				1.02583
				1.02853
				1.00167
				1.00485
				0.978437
				0.979562
				0.957139
				0.952999
				0.941424
				0.932053
				0.932923
				0.918053
				0.931072
				0.913649
				0.93504
				0.917152
				0.939452
				0.924649
				0.944717
				0.931454
				0.946019
				0.937848
				0.945341
				0.940332
				0.943632
				0.940721
				0.957686
				0.961492
				0.960318
				0.96341
				0.962691
				0.967332
				0.963066
				0.969665
				0.961389
				0.969665
				0.958479
				0.968285
				0.956479
				0.96653
				0.958879
				0.966113
				0.963578
				0.970042
				0.974333
				0.977509
				0.98758
				0.988368
				1.0022
				1.00068
				1.01544
				1.01338
				1.02646
				1.02434
				1.03402
				1.03232
				1.03762
				1.03735
				1.03762
				1.03892
				1.03402
				1.03735
				1.02646
				1.03232
				1.01544
				1.02434
				1.0022
				1.01338
				0.987581
				1.00068
				0.974333
				0.988368
				0.963578
				0.977509
				0.958879
				0.970042
				0.956479
				0.966113
				0.958479
				0.966531
				0.961389
				0.968286
				0.963067
				0.969665
				0.962697
				0.969668
				0.960344
				0.967344
				0.957754
				0.963451
				0.974261
				0.969659
				0.978253
				0.971791
				0.982958
				0.976143
				0.984942
				0.979449
				0.985244
				0.980911
				0.985156
				0.980718
				0.985335
				0.980444
				0.986473
				0.980371
				0.989673
				0.984305
				0.994785
				0.989003
				1.00083
				0.995289
				1.00689
				1.00204
				1.01305
				1.00779
				1.01735
				1.01374
				1.02026
				1.01789
				1.02177
				1.0207
				1.02177
				1.02157
				1.02026
				1.0207
				1.01735
				1.01789
				1.01305
				1.01374
				1.00689
				1.00779
				1.00083
				1.00204
				0.994785
				0.995289
				0.989673
				0.989003
				0.986473
				0.984305
				0.985335
				0.980371
				0.985156
				0.980445
				0.985244
				0.980718
				0.984943
				0.980911
				0.982961
				0.979451
				0.978262
				0.97615
				0.974269
				0.971806
				0.978586
				0.981295
				0.98253
				0.983564
				0.987121
				0.988076
				0.990039
				0.991492
				0.991176
				0.992929
				0.991551
				0.993497
				0.992438
				0.993807
				0.993167
				0.994633
				0.995349
				0.996126
				0.998094
				0.99832
				1.00132
				1.0011
				1.00469
				1.0042
				1.00753
				1.00692
				1.00993
				1.0091
				1.01116
				1.01081
				1.01185
				1.01179
				1.01185
				1.01211
				1.01116
				1.01179
				1.00993
				1.01081
				1.00753
				1.0091
				1.00469
				1.00692
				1.00132
				1.0042
				0.998094
				1.0011
				0.995349
				0.99832
				0.993167
				0.996126
				0.992438
				0.994633
				0.991551
				0.993807
				0.991176
				0.993497
				0.990039
				0.99293
				0.987123
				0.991492
				0.982534
				0.988078
				0.978589
				0.983567
				0.987678
				0.984635
				0.990944
				0.986705
				0.994379
				0.990891
				0.996274
				0.994142
				0.997122
				0.995808
				0.99753
				0.996435
				0.998033
				0.996832
				0.998801
				0.997847
				0.999903
				0.998747
				1.00124
				1.00007
				1.00267
				1.0017
				1.0041
				1.003
				1.00519
				1.0043
				1.00604
				1.00537
				1.0066
				1.00617
				1.00689
				1.00669
				1.00689
				1.00685
				1.0066
				1.00669
				1.00604
				1.00617
				1.00519
				1.00537
				1.0041
				1.0043
				1.00267
				1.003
				1.00124
				1.0017
				0.999903
				1.00007
				0.998801
				0.998747
				0.998033
				0.997847
				0.99753
				0.996832
				0.997122
				0.996435
				0.996274
				0.995808
				0.99438
				0.994142
				0.990945
				0.990892
				0.987679
				0.986706
				0.990184
				0.991501
				0.992935
				0.992885
				0.995934
				0.995633
				0.997705
				0.997587
				0.998413
				0.998568
				0.998858
				0.999025
				0.999446
				0.999438
				0.999964
				0.999948
				1.00067
				1.00057
				1.00142
				1.00128
				1.00219
				1.00201
				1.0029
				1.00273
				1.00349
				1.00331
				1.00397
				1.00377
				1.00419
				1.00412
				1.00432
				1.00431
				1.00432
				1.00437
				1.00419
				1.00431
				1.00397
				1.00412
				1.00349
				1.00377
				1.0029
				1.00331
				1.00219
				1.00273
				1.00142
				1.00201
				1.00067
				1.00128
				0.999964
				1.00057
				0.999446
				0.999948
				0.998858
				0.999438
				0.998413
				0.999025
				0.997705
				0.998568
				0.995934
				0.997587
				0.992936
				0.995634
				0.990184
				0.992886
				0.994341
				0.992882
				0.996141
				0.994084
				0.997755
				0.99646
				0.998952
				0.998205
				0.999662
				0.999102
				1.00009
				0.999674
				1.00046
				1.00013
				1.00092
				1.00059
				1.0014
				1.00107
				1.00185
				1.00156
				1.00225
				1.00203
				1.00262
				1.00237
				1.00287
				1.00265
				1.00301
				1.00288
				1.0031
				1.00302
				1.00316
				1.00312
				1.00316
				1.00314
				1.0031
				1.00312
				1.00301
				1.00302
				1.00287
				1.00288
				1.00262
				1.00265
				1.00225
				1.00237
				1.00185
				1.00203
				1.0014
				1.00156
				1.00092
				1.00107
				1.00046
				1.00059
				1.00009
				1.00013
				0.999662
				0.999674
				0.998952
				0.999102
				0.997755
				0.998205
				0.996141
				0.99646
				0.994342
				0.994085
			</DataArray>
			<DataArray type="Float64" Name="mach-number" Format="ascii">
				0.0389923
				0.0602477
				0.100706
				0.0911045
				0.173978
				0.153626
				0.25449
				0.228393
				0.338882
				0.309481
				0.419687
				0.387711
				0.487526
				0.457808
				0.530533
				0.510744
				0.542087
				0.534249
				0.51938
				0.52797
				0.469563
				0.494626
				0.401214
				0.438093
				0.321547
				0.368058
				0.23401
				0.288238
				0.14413
				0.206349
				0.0576058
				0.13127
				0.0576057
				0.0926246
				0.14413
				0.13127
				0.23401
				0.206349
				0.321546
				0.288237
				0.401213
				0.368058
				0.469562
				0.438092
				0.51938
				0.494626
				0.542086
				0.52797
				0.530533
				0.534249
				0.487525
				0.510743
				0.419686
				0.457807
				0.338881
				0.38771
				0.254489
				0.309481
				0.173978
				0.228393
				0.100706
				0.153625
				0.0389933
				0.0911036
				0.139976
				0.0954315
				0.179441
				0.120711
				0.238428
				0.177748
				0.302225
				0.246479
				0.365008
				0.317287
				0.420297
				0.384816
				0.461809
				0.441339
				0.484721
				0.479884
				0.486656
				0.495491
				0.467529
				0.486606
				0.430856
				0.455392
				0.382304
				0.406777
				0.326504
				0.347574
				0.272025
				0.282547
				0.225255
				0.218038
				0.196847
				0.165234
				0.196847
				0.142856
				0.225255
				0.165234
				0.272025
				0.218037
				0.326504
				0.282547
				0.382304
				0.347574
				0.430856
				0.406777
				0.467528
				0.455391
				0.486656
				0.486606
				0.48472
				0.49549
				0.461808
				0.479883
				0.420296
				0.441338
				0.365007
				0.384816
				0.302225
				0.317287
				0.238427
				0.246479
				0.17944
				0.177747
				0.139968
				0.12071
				0.179585
				0.205411
				0.214345
				0.22305
				0.26609
				0.264903
				0.319602
				0.313423
				0.368058
				0.35786
				0.406591
				0.395265
				0.43329
				0.422485
				0.446335
				0.439051
				0.444057
				0.442237
				0.426885
				0.433031
				0.398922
				0.412775
				0.362958
				0.384835
				0.325077
				0.353268
				0.288949
				0.322206
				0.260202
				0.29653
				0.244069
				0.279255
				0.244069
				0.273142
				0.260202
				0.279255
				0.288949
				0.29653
				0.325076
				0.322206
				0.362958
				0.353268
				0.398922
				0.384835
				0.426885
				0.412775
				0.444057
				0.433031
				0.446334
				0.442237
				0.433289
				0.43905
				0.406591
				0.422485
				0.368058
				0.395265
				0.319601
				0.35786
				0.26609
				0.313423
				0.214345
				0.264903
				0.179582
				0.223049
				0.267543
				0.24228
				0.29342
				0.257715
				0.328541
				0.293671
				0.360344
				0.333001
				0.384089
				0.366032
				0.400444
				0.390134
				0.409631
				0.405954
				0.412402
				0.413561
				0.408348
				0.412801
				0.398356
				0.4048
				0.384249
				0.390327
				0.368072
				0.372324
				0.352468
				0.35313
				0.339512
				0.335382
				0.330078
				0.320759
				0.325129
				0.311253
				0.325129
				0.307976
				0.330078
				0.311253
				0.339512
				0.320759
				0.352468
				0.335381
				0.368071
				0.35313
				0.384249
				0.372324
				0.398356
				0.390327
				0.408348
				0.4048
				0.412402
				0.412801
				0.40963
				0.41356
				0.400443
				0.405953
				0.384089
				0.390134
				0.360344
				0.366032
				0.328541
				0.333001
				0.29342
				0.293671
				0.267543
				0.257714
				0.296059
				0.306973
				0.317862
				0.318193
				0.346157
				0.342544
				0.369116
				0.365265
				0.384278
				0.380772
				0.393038
				0.390277
				0.397116
				0.395092
				0.397134
				0.396313
				0.393181
				0.394338
				0.386323
				0.389643
				0.377575
				0.382895
				0.368144
				0.375384
				0.359793
				0.367819
				0.352641
				0.361561
				0.347638
				0.356705
				0.345038
				0.353715
				0.345038
				0.352683
				0.347638
				0.353715
				0.352641
				0.356705
				0.359793
				0.361561
				0.368144
				0.367819
				0.377575
				0.375384
				0.386323
				0.382895
				0.393181
				0.389642
				0.397134
				0.394338
				0.397116
				0.396313
				0.393038
				0.395092
				0.384278
				0.390277
				0.369116
				0.380772
				0.346157
				0.365265
				0.317861
				0.342544
				0.296059
				0.318193
				0.339048
				0.327546
				0.353074
				0.336655
				0.369351
				0.355785
				0.380226
				0.372445
				0.385925
				0.382514
				0.388354
				0.387392
				0.388813
				0.389252
				0.3878
				0.38899
				0.385504
				0.387147
				0.382308
				0.38384
				0.378677
				0.379659
				0.375044
				0.375376
				0.371956
				0.371359
				0.369505
				0.367898
				0.367817
				0.365277
				0.366954
				0.363669
				0.366954
				0.363136
				0.367817
				0.363669
				0.369505
				0.365277
				0.371956
				0.367898
				0.375044
				0.371359
				0.378677
				0.375376
				0.382308
				0.379659
				0.385504
				0.38384
				0.3878
				0.387147
				0.388813
				0.38899
				0.388354
				0.389252
				0.385925
				0.387392
				0.380226
				0.382514
				0.369351
				0.372445
				0.353074
				0.355785
				0.339047
				0.336655
				0.352571
				0.357186
				0.363073
				0.362379
				0.374734
				0.372548
				0.381917
				0.380183
				0.38492
				0.383969
				0.385845
				0.385281
				0.385576
				0.385375
				0.384459
				0.384716
				0.382769
				0.383485
				0.380732
				0.381866
				0.37854
				0.380047
				0.376516
				0.378248
				0.37475
				0.376638
				0.373371
				0.375348
				0.372461
				0.374404
				0.372008
				0.373842
				0.372008
				0.373655
				0.372461
				0.373842
				0.373371
				0.374404
				0.37475
				0.375347
				0.376516
				0.376638
				0.37854
				0.378248
				0.380732
				0.380047
				0.382769
				0.381866
				0.384459
				0.383485
				0.385576
				0.384716
				0.385845
				0.385375
				0.38492
				0.385281
				0.381917
				0.383969
				0.374734
				0.380183
				0.363073
				0.372548
				0.352571
				0.362379
				0.372047
				0.366969
				0.37606
				0.370294
				0.380298
				0.376734
				0.382574
				0.381459
				0.383213
				0.383307
				0.383111
				0.383726
				0.382767
				0.383427
				0.382094
				0.38273
				0.381246
				0.381801
				0.380321
				0.380729
				0.379401
				0.379609
				0.378558
				0.378611
				0.377889
				0.377727
				0.377377
				0.376995
				0.377032
				0.376472
				0.376859
				0.376164
				0.376859
				0.376062
				0.377032
				0.376164
				0.377377
				0.376472
				0.377889
				0.376995
				0.378558
				0.377727
				0.379401
				0.378611
				0.380321
				0.379609
				0.381246
				0.380729
				0.382094
				0.381801
				0.382767
				0.38273
				0.383111
				0.383427
				0.383213
				0.383726
				0.382574
				0.383307
				0.380298
				0.381459
				0.37606
				0.376734
				0.372047
				0.370294
			</DataArray>
			<DataArray type="Float64" Name="pressure" Format="ascii">
				4.64457
				4.67839
				4.61066
				4.66397
				4.54243
				4.62164
				4.44216
				4.55312
				4.33067
				4.4556
				4.20942
				4.36024
				4.11684
				4.27272
				4.0934
				4.22909
				4.16711
				4.26784
				4.34975
				4.39384
				4.61427
				4.59183
				4.9119
				4.84123
				5.19977
				5.1021
				5.45763
				5.35698
				5.63999
				5.53756
				5.73598
				5.65471
				5.73598
				5.69492
				5.63999
				5.65471
				5.45763
				5.53756
				5.19977
				5.35698
				4.9119
				5.1021
				4.61427
				4.84123
				4.34975
				4.59183
				4.16711
				4.39385
				4.09341
				4.26784
				4.11684
				4.22909
				4.20942
				4.27272
				4.33067
				4.36024
				4.44216
				4.4556
				4.54243
				4.55313
				4.61066
				4.62165
				4.64457
				4.66397
				4.81112
				4.79781
				4.79628
				4.7877
				4.76509
				4.75701
				4.7201
				4.70536
				4.65457
				4.63082
				4.59933
				4.55631
				4.55619
				4.48458
				4.55698
				4.44653
				4.60704
				4.46591
				4.71032
				4.55397
				4.85457
				4.69616
				5.01192
				4.87328
				5.17721
				5.05003
				5.30279
				5.21713
				5.39263
				5.34713
				5.43906
				5.42957
				5.43906
				5.4577
				5.39263
				5.42957
				5.30279
				5.34713
				5.17721
				5.21713
				5.01192
				5.05003
				4.85457
				4.87328
				4.71032
				4.69616
				4.60704
				4.55397
				4.55698
				4.46592
				4.55619
				4.44653
				4.59933
				4.48458
				4.65457
				4.55631
				4.7201
				4.63082
				4.7651
				4.70536
				4.79628
				4.75702
				4.81111
				4.78772
				4.87132
				4.88939
				4.85946
				4.88567
				4.83557
				4.87346
				4.80231
				4.85002
				4.76302
				4.81967
				4.72484
				4.78844
				4.69929
				4.76297
				4.70597
				4.75172
				4.73433
				4.77253
				4.80574
				4.81914
				4.89357
				4.89099
				4.99482
				4.97623
				5.08376
				5.06308
				5.16028
				5.13814
				5.21445
				5.19263
				5.24226
				5.22684
				5.24226
				5.23844
				5.21445
				5.22684
				5.16028
				5.19263
				5.08376
				5.13814
				4.99482
				5.06308
				4.89357
				4.97623
				4.80574
				4.89099
				4.73433
				4.81914
				4.70598
				4.77253
				4.69929
				4.75172
				4.72484
				4.76297
				4.76302
				4.78844
				4.80231
				4.81967
				4.83558
				4.85002
				4.85946
				4.87346
				4.87132
				4.88567
				4.9144
				4.9004
				4.91167
				4.89809
				4.90649
				4.89095
				4.89189
				4.87806
				4.87752
				4.86342
				4.86651
				4.84732
				4.86188
				4.83647
				4.86641
				4.83172
				4.88609
				4.85395
				4.91823
				4.88243
				4.9586
				4.92499
				4.99983
				4.97008
				5.0418
				5.01259
				5.0714
				5.05281
				5.09208
				5.08172
				5.10274
				5.10126
				5.10274
				5.10748
				5.09208
				5.10126
				5.0714
				5.08172
				5.0418
				5.05281
				4.99983
				5.01259
				4.9586
				4.97008
				4.91823
				4.92499
				4.88609
				4.88243
				4.86641
				4.85395
				4.86188
				4.83172
				4.86651
				4.83648
				4.87752
				4.84732
				4.89189
				4.86342
				4.90649
				4.87806
				4.91167
				4.89095
				4.9144
				4.89809
				4.91023
				4.92212
				4.91037
				4.92249
				4.90951
				4.92248
				4.90729
				4.92004
				4.9027
				4.91556
				4.8992
				4.91191
				4.90117
				4.91031
				4.90448
				4.91349
				4.91838
				4.92236
				4.93707
				4.93683
				4.9585
				4.95581
				4.9813
				4.97646
				5.00022
				4.99532
				5.01635
				5.01006
				5.02596
				5.0213
				5.03126
				5.02815
				5.03126
				5.03053
				5.02596
				5.02815
				5.01635
				5.0213
				5.00022
				5.01006
				4.9813
				4.99532
				4.9585
				4.97646
				4.93707
				4.95581
				4.91838
				4.93683
				4.90448
				4.92236
				4.90117
				4.91349
				4.8992
				4.91031
				4.9027
				4.91191
				4.90729
				4.91556
				4.90951
				4.92004
				4.91037
				4.92248
				4.91023
				4.92249
				4.92748
				4.91807
				4.92923
				4.91954
				4.93075
				4.92257
				4.9309
				4.92509
				4.93105
				4.9262
				4.93147
				4.92626
				4.93376
				4.92702
				4.93825
				4.93206
				4.94537
				4.93806
				4.95426
				4.94707
				4.96379
				4.95749
				4.97354
				4.96702
				4.98112
				4.97618
				4.98702
				4.98363
				4.99105
				4.98917
				4.99314
				4.99281
				4.99314
				4.99392
				4.99105
				4.99281
				4.98702
				4.98917
				4.98112
				4.98363
				4.97354
				4.97618
				4.96379
				4.96702
				4.95426
				4.95749
				4.94537
				4.94707
				4.93825
				4.93806
				4.93376
				4.93206
				4.93147
				4.92702
				4.93105
				4.92626
				4.9309
				4.9262
				4.93075
				4.92509
				4.92923
				4.92257
				4.92748
				4.91954
				4.92534
				4.93092
				4.92854
				4.93206
				4.93246
				4.93493
				4.93546
				4.9367
				4.93711
				4.93846
				4.93887
				4.94003
				4.94213
				4.94216
				4.94545
				4.94528
				4.9502
				4.94938
				4.95534
				4.9541
				4.96071
				4.9592
				4.96545
				4.96415
				4.96947
				4.9682
				4.97271
				4.97133
				4.97454
				4.97361
				4.97553
				4.97498
				4.97553
				4.97544
				4.97454
				4.97498
				4.97271
				4.97361
				4.96947
				4.97133
				4.96545
				4.9682
				4.96071
				4.96415
				4.95534
				4.9592
				4.9502
				4.9541
				4.94545
				4.94938
				4.94213
				4.94528
				4.93887
				4.94216
				4.93711
				4.94003
				4.93546
				4.93846
				4.93246
				4.9367
				4.92854
				4.93493
				4.92534
				4.93206
				4.93088
				4.92667
				4.93405
				4.92868
				4.93656
				4.93304
				4.94056
				4.93761
				4.94389
				4.94092
				4.94638
				4.94371
				4.94868
				4.94645
				4.9517
				4.94946
				4.95486
				4.95271
				4.95786
				4.95597
				4.96061
				4.95916
				4.96313
				4.96152
				4.96486
				4.96364
				4.9659
				4.96521
				4.9666
				4.96622
				4.96698
				4.96692
				4.96698
				4.96712
				4.9666
				4.96692
				4.9659
				4.96622
				4.96486
				4.96521
				4.96313
				4.96364
				4.96061
				4.96152
				4.95786
				4.95916
				4.95486
				4.95597
				4.9517
				4.95271
				4.94868
				4.94946
				4.94638
				4.94645
				4.94389
				4.94371
				4.94056
				4.94092
				4.93656
				4.93761
				4.93405
				4.93304
				4.93088
				4.92868
			</DataArray>
			<DataArray type="Float64" Name="velocity" NumberOfComponents="3" Format="ascii">
				0.0698174 -0.0771018 0
				0.160823 2.02115e-06 0
				0.140295 -0.228392 0
				0.199606 -0.138404 0
				0.281816 -0.36517 0
				0.311355 -0.264199 0
				0.486745 -0.462449 0
				0.48456 -0.361418 0
				0.73846 -0.495208 0
				0.702955 -0.412271 0
				1.00145 -0.442341 0
				0.936474 -0.39335 0
				1.23057 -0.295451 0
				1.15566 -0.299246 0
				1.37187 -0.075875 0
				1.32097 -0.132415 0
				1.39452 0.175712 0
				1.38649 0.0779521 0
				1.29085 0.406686 0
				1.34534 0.291754 0
				1.09493 0.56668 0
				1.21208 0.460813 0
				0.845638 0.642954 0
				1.01047 0.563848 0
				0.587781 0.625018 0
				0.785855 0.583677 0
				0.358552 0.516175 0
				0.568821 0.521456 0
				0.190501 0.338964 0
				0.39733 0.387467 0
				0.10164 0.118032 0
				0.287863 0.206146 0
				0.10164 -0.118032 0
				0.250068 1.97177e-07 0
				0.190501 -0.338963 0
				0.287863 -0.206146 0
				0.358553 -0.516176 0
				0.39733 -0.387467 0
				0.58778 -0.625017 0
				0.568821 -0.521455 0
				0.845637 -0.642953 0
				0.785854 -0.583676 0
				1.09493 -0.566679 0
				1.01047 -0.563848 0
				1.29085 -0.406685 0
				1.21208 -0.460813 0
				1.39452 -0.175712 0
				1.34534 -0.291754 0
				1.37187 0.0758749 0
				1.38649 -0.0779521 0
				1.23057 0.295451 0
				1.32097 0.132414 0
				1.00145 0.44234 0
				1.15566 0.299246 0
				0.738459 0.495207 0
				0.936472 0.393349 0
				0.486743 0.462447 0
				0.702953 0.41227 0
				0.281814 0.365168 0
				0.484559 0.361416 0
				0.140292 0.228388 0
				0.311351 0.264196 0
				0.0698162 0.0771051 0
				0.199598 0.138404 0
				0.369706 -0.0566532 0
				0.255119 -1.94324e-06 0
				0.451426 -0.157908 0
				0.296862 -0.125313 0
				0.590128 -0.229417 0
				0.412309 -0.231883 0
				0.755053 -0.262307 0
				0.578295 -0.303814 0
				0.927211 -0.253811 0
				0.769635 -0.329178 0
				1.08544 -0.195689 0
				0.966127 -0.296948 0
				1.20482 -0.0974209 0
				1.13586 -0.207867 0
				1.26717 0.0319053 0
				1.25058 -0.0715531 0
				1.26229 0.170947 0
				1.28962 0.0942932 0
				1.19228 0.290615 0
				1.24689 0.254893 0
				1.07278 0.37231 0
				1.13332 0.382475 0
				0.928612 0.401872 0
				0.972945 0.453707 0
				0.780968 0.378575 0
				0.796742 0.463892 0
				0.657589 0.306497 0
				0.63274 0.408123 0
				0.568776 0.197951 0
				0.498578 0.302379 0
				0.522521 0.0683276 0
				0.412709 0.160559 0
				0.522521 -0.068327 0
				0.383131 2.5714e-07 0
				0.568776 -0.19795 0
				0.412709 -0.160559 0
				0.657589 -0.306497 0
				0.498577 -0.302379 0
				0.780968 -0.378574 0
				0.63274 -0.408122 0
				0.928611 -0.401871 0
				0.796741 -0.463892 0
				1.07278 -0.37231 0
				0.972945 -0.453707 0
				1.19228 -0.290615 0
				1.13332 -0.382475 0
				1.26229 -0.170947 0
				1.24688 -0.254892 0
				1.26717 -0.0319054 0
				1.28962 -0.0942931 0
				1.20481 0.0974205 0
				1.25058 0.0715528 0
				1.08544 0.195688 0
				1.13585 0.207867 0
				0.92721 0.253809 0
				0.966126 0.296947 0
				0.755052 0.262305 0
				0.769634 0.329177 0
				0.590125 0.229414 0
				0.578293 0.303812 0
				0.451416 0.157904 0
				0.412304 0.231879 0
				0.369635 0.0566482 0
				0.296846 0.125309 0
				0.476983 -0.0463868 0
				0.548077 -2.15114e-06 0
				0.556439 -0.125931 0
				0.589225 -0.077684 0
				0.683761 -0.174284 0
				0.691416 -0.129989 0
				0.823339 -0.187604 0
				0.815728 -0.149882 0
				0.954882 -0.166748 0
				0.933347 -0.141471 0
				1.06176 -0.116475 0
				1.03449 -0.107235 0
				1.13562 -0.041419 0
				1.1084 -0.0537145 0
				1.16893 0.0488642 0
				1.15199 0.0160492 0
				1.1561 0.140739 0
				1.15707 0.0910565 0
				1.1003 0.218416 0
				1.12627 0.160483 0
				1.01604 0.267655 0
				1.06579 0.210938 0
				0.916503 0.281443 0
				0.987847 0.234984 0
				0.820685 0.259144 0
				0.90586 0.228792 0
				0.737937 0.207545 0
				0.830922 0.196518 0
				0.678308 0.133784 0
				0.773884 0.142533 0
				0.647466 0.0461479 0
				0.737916 0.0747257 0
				0.647466 -0.0461474 0
				0.725709 2.02454e-07 0
				0.678308 -0.133784 0
				0.737916 -0.0747252 0
				0.737937 -0.207545 0
				0.773884 -0.142532 0
				0.820685 -0.259143 0
				0.830922 -0.196517 0
				0.916503 -0.281443 0
				0.905859 -0.228792 0
				1.01604 -0.267655 0
				0.987847 -0.234984 0
				1.10029 -0.218416 0
				1.06579 -0.210938 0
				1.1561 -0.140739 0
				1.12627 -0.160483 0
				1.16893 -0.0488643 0
				1.15707 -0.0910566 0
				1.13562 0.0414187 0
				1.15199 -0.0160495 0
				1.06176 0.116475 0
				1.1084 0.053714 0
				0.954881 0.166748 0
				1.03449 0.107235 0
				0.823338 0.187603 0
				0.933346 0.14147 0
				0.683759 0.174283 0
				0.815727 0.149881 0
				0.556431 0.12593 0
				0.691411 0.129988 0
				0.476956 0.0463847 0
				0.589209 0.0776836 0
				0.710461 -0.027096 0
				0.644449 -5.12088e-07 0
				0.775007 -0.0674238 0
				0.682156 -0.0576801 0
				0.864789 -0.0802365 0
				0.772325 -0.0920745 0
				0.947395 -0.0729299 0
				0.873777 -0.0984755 0
				1.0098 -0.0526222 0
				0.960715 -0.0837767 0
				1.05282 -0.0234882 0
				1.0248 -0.0547689 0
				1.07658 0.0106539 0
				1.06669 -0.016832 0
				1.08272 0.0482049 0
				1.08596 0.02821 0
				1.07034 0.0831449 0
				1.08207 0.0746713 0
				1.04228 0.109686 0
				1.05799 0.114813 0
				1.00439 0.123825 0
				1.01753 0.141743 0
				0.962592 0.123432 0
				0.969314 0.151784 0
				0.923824 0.110278 0
				0.920522 0.144839 0
				0.892768 0.0860878 0
				0.877601 0.121292 0
				0.870806 0.0545363 0
				0.843516 0.0871466 0
				0.859493 0.0186578 0
				0.822051 0.0456759 0
				0.859493 -0.0186575 0
				0.814797 1.52233e-07 0
				0.870806 -0.054536 0
				0.822051 -0.0456756 0
				0.892767 -0.0860875 0
				0.843516 -0.0871463 0
				0.923823 -0.110278 0
				0.877601 -0.121291 0
				0.962592 -0.123432 0
				0.920521 -0.144839 0
				1.00439 -0.123825 0
				0.969313 -0.151784 0
				1.04228 -0.109686 0
				1.01753 -0.141743 0
				1.07034 -0.0831449 0
				1.05799 -0.114813 0
				1.08272 -0.048205 0
				1.08207 -0.0746714 0
				1.07658 -0.0106541 0
				1.08596 -0.0282102 0
				1.05282 0.0234878 0
				1.06669 0.0168317 0
				1.0098 0.0526218 0
				1.0248 0.0547685 0
				0.947395 0.0729295 0
				0.960715 0.0837762 0
				0.864787 0.0802362 0
				0.873777 0.0984751 0
				0.775003 0.0674236 0
				0.772323 0.0920742 0
				0.710457 0.0270951 0
				0.682149 0.0576796 0
				0.784444 -0.0193595 0
				0.813467 -1.87906e-07 0
				0.839517 -0.0462155 0
				0.841676 -0.0313823 0
				0.912009 -0.0507736 0
				0.903611 -0.0431815 0
				0.971503 -0.0405501 0
				0.962022 -0.0373349 0
				1.01096 -0.0236261 0
				1.00214 -0.0242518 0
				1.03371 -0.00386826 0
				1.02675 -0.00854308 0
				1.04405 0.0174791 0
				1.03909 0.00807941 0
				1.0435 0.0385586 0
				1.04193 0.0251088 0
				1.03255 0.0573875 0
				1.03638 0.0411487 0
				1.01416 0.0708724 0
				1.02381 0.0538583 0
				0.991197 0.0766772 0
				1.00614 0.0611981 0
				0.967064 0.0744365 0
				0.986798 0.0622366 0
				0.946181 0.0645407 0
				0.967672 0.0570838 0
				0.928555 0.050313 0
				0.95208 0.0468979 0
				0.916499 0.0316043 0
				0.940104 0.0332347 0
				0.910291 0.0107997 0
				0.932831 0.0171918 0
				0.910291 -0.0107995 0
				0.930338 8.76728e-08 0
				0.916499 -0.0316041 0
				0.932831 -0.0171916 0
				0.928555 -0.0503128 0
				0.940104 -0.0332345 0
				0.946181 -0.0645405 0
				0.95208 -0.0468977 0
				0.967064 -0.0744364 0
				0.967672 -0.0570836 0
				0.991197 -0.0766772 0
				0.986798 -0.0622365 0
				1.01416 -0.0708724 0
				1.00614 -0.061198 0
				1.03255 -0.0573875 0
				1.02381 -0.0538583 0
				1.0435 -0.0385587 0
				1.03638 -0.0411488 0
				1.04404 -0.0174793 0
				1.04193 -0.0251089 0
				1.03371 0.00386804 0
				1.03909 -0.00807959 0
				1.01096 0.0236259 0
				1.02675 0.00854287 0
				0.971503 0.0405498 0
				1.00214 0.0242516 0
				0.912008 0.0507734 0
				0.962021 0.0373347 0
				0.839515 0.0462153 0
				0.90361 0.0431814 0
				0.784443 0.0193592 0
				0.841674 0.0313819 0
				0.895974 -0.0111543 0
				0.866156 -1.29292e-07 0
				0.931428 -0.0241534 0
				0.889171 -0.0219645 0
				0.972911 -0.0220164 0
				0.937852 -0.0284568 0
				1.00079 -0.0132084 0
				0.980623 -0.0217905 0
				1.01545 -0.00386324 0
				1.00659 -0.0110241 0
				1.02168 0.00456377 0
				1.01918 -0.000411847 0
				1.02279 0.0126785 0
				1.0239 0.0098992 0
				1.02008 0.0202234 0
				1.02306 0.0198908 0
				1.01407 0.0261691 0
				1.01817 0.028536 0
				1.00579 0.0298815 0
				1.00952 0.0348512 0
				0.996448 0.0307356 0
				0.998642 0.0377498 0
				0.987202 0.0288248 0
				0.98768 0.0373855 0
				0.979393 0.0246217 0
				0.977515 0.0332991 0
				0.973235 0.0187364 0
				0.968796 0.0270478 0
				0.969018 0.0116714 0
				0.962233 0.0190126 0
				0.966867 0.00396099 0
				0.958235 0.00983239 0
				0.966867 -0.00396089 0
				0.956915 4.94947e-08 0
				0.969018 -0.0116713 0
				0.958235 -0.00983229 0
				0.973234 -0.0187363 0
				0.962233 -0.0190125 0
				0.979393 -0.0246217 0
				0.968796 -0.0270477 0
				0.987202 -0.0288247 0
				0.977515 -0.033299 0
				0.996448 -0.0307355 0
				0.98768 -0.0373854 0
				1.00579 -0.0298815 0
				0.998642 -0.0377497 0
				1.01407 -0.0261691 0
				1.00952 -0.0348512 0
				1.02008 -0.0202234 0
				1.01817 -0.028536 0
				1.02279 -0.0126786 0
				1.02306 -0.0198909 0
				1.02168 -0.00456388 0
				1.0239 -0.00989931 0
				1.01545 0.00386314 0
				1.01918 0.000411715 0
				1.00079 0.0132083 0
				1.00659 0.011024 0
				0.972911 0.0220163 0
				0.980623 0.0217904 0
				0.931427 0.0241533 0
				0.937851 0.0284567 0
				0.895974 0.0111541 0
				0.88917 0.0219642 0
				0.930368 -0.00814048 0
				0.942488 -2.42496e-08 0
				0.956942 -0.0173237 0
				0.955547 -0.012911 0
				0.986627 -0.0150921 0
				0.98126 -0.015342 0
				1.00504 -0.00821976 0
				1.00064 -0.0105603 0
				1.01278 -0.00166362 0
				1.01033 -0.00457609 0
				1.01516 0.00398646 0
				1.01372 0.000457419 0
				1.01446 0.00900985 0
				1.01397 0.004793 0
				1.01155 0.0132504 0
				1.01227 0.00863977 0
				1.00718 0.0164166 0
				1.0091 0.01175 0
				1.00194 0.018129 0
				1.00494 0.0137787 0
				0.99632 0.0182398 0
				1.00029 0.0145809 0
				0.991139 0.0167469 0
				0.995697 0.0140746 0
				0.986642 0.0141749 0
				0.991599 0.0124994 0
				0.983137 0.0107843 0
				0.988313 0.010044 0
				0.980851 0.00666464 0
				0.985908 0.00699968 0
				0.979714 0.00225528 0
				0.984489 0.00358302 0
				0.979714 -0.00225523 0
				0.984018 2.56946e-08 0
				0.980851 -0.00666458 0
				0.984489 -0.00358297 0