<VTKFile type="UnstructuredGrid" version="0.1" byte_order="LittleEndian">
<UnstructuredGrid>
	<Piece NumberOfPoints="288" NumberOfCells="512">
		<CellData Scalars="density" Vectors="velocity">
			<DataArray type="Float64" Name="density" Format="ascii">
				1.24319
				1.35795
				1.09314
				1.22504
				0.972015
				1.07586
				0.871708
				0.956521
				0.790587
				0.858986
				0.731955
				0.784234
				0.700226
				0.736415
				0.696303
				0.716858
				0.716966
				0.722685
				0.756044
				0.7495
				0.806865
				0.79047
				0.86483
				0.83934
				0.927182
				0.892403
				0.992525
				0.947426
				1.0556
				1.00287
				1.09068
				1.05593
				1.09078
				1.09109
				1.05458
				1.05504
				0.991071
				1.00173
				0.925659
				0.946162
				0.863116
				0.890974
				0.804851
				0.837668
				0.753619
				0.788474
				0.714
				0.747082
				0.692623
				0.719703
				0.695589
				0.713067
				0.72609
				0.731473
				0.783169
				0.777703
				0.86218
				0.850288
				0.9592
				0.944581
				1.07493
				1.05834
				1.31044
				1.20968
				1.2185
				1.30431
				1.04874
				1.18736
				0.979477
				1.03836
				0.936513
				0.966553
				0.905976
				0.919825
				0.882984
				0.885147
				0.867715
				0.860004
				0.864279
				0.847575
				0.876803
				0.852598
				0.907974
				0.876213
				0.947359
				0.913271
				0.988945
				0.955707
				1.02744
				0.997613
				1.0582
				1.03465
				1.07792
				1.06419
				1.09246
				1.08783
				1.0917
				1.09405
				1.0778
				1.08749
				1.05774
				1.06373
				1.02661
				1.03386
				0.987754
				0.996489
				0.945774
				0.954208
				0.905928
				0.911317
				0.874235
				0.873707
				0.861264
				0.849518
				0.864459
				0.844077
				0.879716
				0.856352
				0.902823
				0.881552
				0.933348
				0.916218
				0.975409
				0.962072
				1.0405
				1.02971
				1.23284
				1.1724
				1.19066
				1.20074
				0.989799
				1.02278
				0.949088
				0.97299
				0.945664
				0.969732
				0.951347
				0.974807
				0.957178
				0.979306
				0.960862
				0.980791
				0.963451
				0.979961
				0.967585
				0.978464
				0.975162
				0.97853
				0.989517
				0.983185
				1.00771
				0.992468
				1.0261
				1.00363
				1.04205
				1.01402
				1.05557
				1.02234
				1.07488
				1.02915
				1.07409
				1.04283
				1.05545
				1.02915
				1.04178
				1.02217
				1.02561
				1.0137
				1.00697
				1.0031
				0.988509
				0.991714
				0.973889
				0.982189
				0.96612
				0.977329
				0.961917
				0.97715
				0.959374
				0.978651
				0.955802
				0.979575
				0.950082
				0.978268
				0.94436
				0.97401
				0.947016
				0.969097
				0.983182
				0.971869
				1.20129
				1.01849
				1.06692
				1.18897
				0.981491
				1.02529
				0.984653
				0.979694
				0.98857
				0.982214
				0.98863
				0.985181
				0.986174
				0.98451
				0.983653
				0.981838
				0.983057
				0.979841
				0.985689
				0.980614
				0.991575
				0.984966
				0.998964
				0.992284
				1.00691
				1.00095
				1.01418
				1.00961
				1.01972
				1.01701
				1.02245
				1.02241
				1.02594
				1.02444
				1.02591
				1.03024
				1.0224
				1.02454
				1.01954
				1.02226
				1.01388
				1.01673
				1.00648
				1.00919
				0.998394
				1.00038
				0.990884
				0.991569
				0.984908
				0.984131
				0.982262
				0.979724
				0.982919
				0.978971
				0.98556
				0.981065
				0.988193
				0.983904
				0.988365
				0.984809
				0.984693
				0.982101
				0.981408
				0.979495
				1.06811
				1.02148
				1.05864
				1.06078
				0.971274
				0.980779
				0.981349
				0.987864
				0.988857
				0.994168
				0.992539
				0.996622
				0.994355
				0.997477
				0.995587
				0.997864
				0.996871
				0.998206
				0.998417
				0.998662
				1.0003
				0.999336
				1.00297
				1.00032
				1.00599
				1.00167
				1.00881
				1.003
				1.01106
				1.00399
				1.01276
				1.00446
				1.01619
				1.00498
				1.01616
				1.00761
				1.01271
				1.00493
				1.01095
				1.00439
				1.00864
				1.00387
				1.00576
				1.00284
				1.0027
				1.00148
				0.999997
				1.0001
				0.998122
				0.999121
				0.996596
				0.998471
				0.995335
				0.998044
				0.994132
				0.997734
				0.992355
				0.997386
				0.988727
				0.99658
				0.98128
				0.9942
				0.97103
				0.987995
				1.05958
				0.980649
				1.00236
				1.04856
				0.990231
				0.988215
				0.994861
				0.98987
				0.996157
				0.994457
				0.99637
				0.995712
				0.996376
				0.995932
				0.996593
				0.996025
				0.997263
				0.996424
				0.998465
				0.997353
				0.999902
				0.998768
				1.00131
				1.00037
				1.00252
				1.0019
				1.00338
				1.00315
				1.00382
				1.004
				1.0038
				1.00436
				1.00439
				1.00392
				1.00436
				1.00496
				1.00375
				1.00384
				1.00374
				1.00427
				1.00327
				1.00388
				1.00238
				1.003
				1.00115
				1.00172
				0.999725
				1.00018
				0.998277
				0.998557
				0.99708
				0.997142
				0.99644
				0.996234
				0.996267
				0.995876
				0.996316
				0.995836
				0.996165
				0.995679
				0.994941
				0.994499
				0.990413
				0.99002
				0.996425
				0.986519
				1.00134
				1.00004
				0.989966
				0.990508
				0.995097
				0.996063
				0.996779
				0.997269
				0.997465
				0.997646
				0.997851
				0.997831
				0.998164
				0.997967
				0.998506
				0.9981
				0.999031
				0.998329
				0.999739
				0.998786
				1.00041
				0.999324
				1.00096
				0.999761
				1.00136
				1.00005
				1.00158
				1.00019
				1.00166
				1.0002
				1.00228
				1.0002
				1.00226
				1.00071
				1.00164
				1.0002
				1.00155
				1.00019
				1.00132
				1.00017
				1.00091
				1.00003
				1.00036
				0.999735
				0.999691
				0.999301
				0.998994
				0.998773
				0.998473
				0.998323
				0.998129
				0.998093
				0.997816
				0.997956
				0.997438
				0.997821
				0.996769
				0.997642
				0.995112
				0.997279
				0.990038
				0.996095
				0.996866
				0.990262
				0.995602
				0.993185
				0.996457
				0.996262
				0.997451
				0.996375
				0.99776
				0.997387
				0.9979
				0.997719
				0.99798
				0.997889
				0.998024
				0.998012
				0.998006
				0.998108
				0.998614
				0.998263
				0.999257
				0.998824
				0.999657
				0.999403
				0.999885
				0.99979
				0.999997
				1.00003
				1.00003
				1.00016
				0.999999
				1.0002
				1
				1.00009
				1
				1.00034
				0.999995
				1.00007
				1.00002
				1.00018
				0.999985
				1.00014
				0.999871
				1.00001
				0.999644
				0.99977
				0.999251
				0.999388
				0.998619
				0.998819
				0.998024
				0.998268
				0.998036
				0.99811
				0.997994
				0.998014
				0.997921
				0.997898
				0.997796
				0.997741
				0.997508
				0.997431
				0.996552
				0.996455
				0.990427
				0.994724
			</DataArray>
			<DataArray type="Float64" Name="mach-number" Format="ascii">
				0.0505953
				0.127677
				0.179453
				0.176944
				0.30183
				0.275708
				0.418921
				0.38664
				0.519271
				0.489599
				0.591352
				0.570208
				0.626607
				0.616417
				0.623672
				0.624541
				0.589187
				0.599991
				0.532297
				0.551717
				0.461665
				0.488903
				0.383108
				0.418002
				0.299138
				0.342543
				0.2104
				0.264848
				0.117916
				0.189658
				0.0328513
				0.123205
				0.0343715
				0.0780563
				0.120354
				0.125161
				0.212754
				0.191471
				0.301538
				0.266958
				0.385722
				0.344837
				0.464679
				0.42056
				0.535937
				0.491872
				0.593722
				0.555298
				0.629378
				0.604421
				0.63372
				0.630086
				0.600025
				0.623383
				0.52963
				0.578847
				0.43123
				0.500001
				0.316646
				0.398808
				0.197999
				0.289405
				0.0774733
				0.187525
				0.181961
				0.136638
				0.198374
				0.147713
				0.236755
				0.179773
				0.288354
				0.237688
				0.350452
				0.304591
				0.415381
				0.376954
				0.470842
				0.445043
				0.503879
				0.493718
				0.506827
				0.510556
				0.479987
				0.493726
				0.433646
				0.451638
				0.37727
				0.394492
				0.319128
				0.330075
				0.267363
				0.26388
				0.227939
				0.200238
				0.185227
				0.133677
				0.186953
				0.085233
				0.22859
				0.135836
				0.268483
				0.201431
				0.320727
				0.265422
				0.379271
				0.331932
				0.436077
				0.396705
				0.482943
				0.454318
				0.510398
				0.497022
				0.50797
				0.514553
				0.475154
				0.498231
				0.419473
				0.449614
				0.353847
				0.381064
				0.290534
				0.307832
				0.237045
				0.239742
				0.195342
				0.179918
				0.179991
				0.139532
				0.187425
				0.20357
				0.204622
				0.22913
				0.250617
				0.274617
				0.303014
				0.315064
				0.354121
				0.356486
				0.39817
				0.39471
				0.431293
				0.425616
				0.450552
				0.445926
				0.453235
				0.452742
				0.4391
				0.444275
				0.409948
				0.42237
				0.371238
				0.39166
				0.329286
				0.357893
				0.289437
				0.326873
				0.252495
				0.302945
				0.201352
				0.285798
				0.203019
				0.269418
				0.253025
				0.286013
				0.290326
				0.303556
				0.330587
				0.327876
				0.372935
				0.359285
				0.412044
				0.39343
				0.441586
				0.42452
				0.456016
				0.446784
				0.453445
				0.455502
				0.434078
				0.448736
				0.40063
				0.428253
				0.355974
				0.396939
				0.303785
				0.358
				0.24952
				0.315417
				0.200099
				0.273211
				0.184933
				0.225969
				0.24099
				0.206269
				0.308166
				0.237519
				0.339777
				0.294844
				0.363448
				0.333479
				0.382246
				0.362939
				0.397173
				0.385395
				0.407961
				0.401808
				0.413498
				0.411822
				0.412492
				0.414392
				0.404281
				0.409053
				0.390641
				0.396281
				0.374261
				0.37799
				0.358413
				0.357236
				0.34594
				0.33714
				0.3382
				0.319475
				0.329017
				0.299183
				0.329101
				0.284967
				0.338516
				0.299468
				0.346546
				0.319975
				0.359296
				0.337907
				0.37541
				0.358275
				0.392028
				0.379282
				0.40586
				0.397795
				0.414181
				0.410725
				0.415173
				0.41612
				0.409494
				0.413486
				0.39845
				0.403271
				0.383159
				0.386523
				0.363876
				0.363572
				0.339533
				0.333367
				0.306895
				0.293496
				0.240412
				0.234532
				0.243168
				0.248507
				0.319851
				0.323982
				0.353308
				0.360324
				0.372569
				0.375491
				0.384528
				0.384786
				0.392158
				0.391083
				0.396478
				0.395124
				0.397543
				0.39681
				0.39526
				0.395867
				0.390005
				0.392176
				0.382248
				0.386279
				0.373183
				0.379163
				0.364207
				0.372093
				0.356353
				0.36628
				0.34928
				0.362533
				0.338934
				0.360425
				0.33896
				0.357826
				0.349536
				0.360635
				0.356774
				0.362885
				0.364803
				0.366799
				0.373939
				0.372769
				0.383133
				0.379976
				0.390974
				0.387197
				0.396253
				0.393156
				0.398502
				0.396851
				0.39734
				0.397733
				0.392862
				0.395928
				0.385011
				0.391717
				0.372751
				0.385203
				0.353042
				0.375632
				0.318779
				0.360078
				0.24282
				0.323199
				0.31223
				0.248751
				0.369611
				0.329808
				0.380149
				0.367449
				0.384969
				0.379502
				0.387696
				0.385174
				0.389245
				0.388248
				0.38974
				0.389737
				0.389099
				0.389796
				0.387285
				0.388388
				0.38447
				0.385697
				0.381169
				0.382046
				0.377949
				0.377959
				0.375319
				0.374028
				0.37361
				0.370715
				0.372906
				0.368174
				0.371595
				0.364828
				0.371644
				0.362792
				0.373058
				0.364945
				0.373856
				0.368385
				0.375653
				0.371021
				0.37836
				0.374419
				0.38164
				0.37842
				0.38498
				0.382556
				0.387806
				0.386226
				0.389597
				0.388906
				0.390183
				0.390275
				0.389606
				0.390144
				0.387955
				0.388553
				0.385103
				0.385346
				0.38013
				0.379498
				0.369372
				0.367173
				0.311192
				0.328578
				0.311869
				0.312737
				0.372679
				0.370184
				0.382225
				0.382645
				0.385597
				0.385413
				0.386987
				0.386579
				0.38744
				0.387038
				0.387236
				0.386982
				0.386452
				0.386445
				0.385051
				0.38539
				0.38312
				0.383873
				0.38108
				0.382154
				0.379169
				0.380526
				0.377572
				0.379182
				0.376368
				0.378238
				0.375466
				0.377737
				0.373822
				0.377621
				0.37384
				0.377252
				0.375547
				0.377686
				0.376497
				0.377848
				0.377744
				0.378391
				0.379376
				0.379371
				0.38131
				0.380743
				0.383358
				0.382387
				0.385281
				0.384109
				0.386667
				0.385617
				0.387429
				0.38665
				0.387596
				0.387154
				0.387091
				0.387165
				0.385634
				0.386651
				0.382171
				0.385417
				0.372472
				0.382555
				0.311472
				0.369753
				0.356445
				0.312152
				0.38253
				0.371839
				0.384628
				0.38305
				0.385283
				0.384997
				0.385432
				0.385542
				0.3853
				0.385578
				0.384957
				0.385316
				0.384466
				0.384838
				0.383501
				0.384106
				0.382338
				0.382784
				0.381323
				0.381595
				0.380521
				0.38057
				0.379945
				0.379756
				0.379583
				0.379155
				0.37942
				0.378743
				0.379345
				0.378384
				0.379355
				0.378087
				0.379448
				0.378412
				0.379628
				0.378789
				0.380003
				0.379217
				0.380589
				0.379829
				0.381393
				0.380649
				0.382402
				0.381671
				0.38355
				0.382848
				0.384498
				0.384144
				0.384976
				0.384866
				0.385297
				0.385327
				0.385402
				0.385564
				0.385221
				0.385495
				0.384528
				0.384906
				0.382376
				0.38289
				0.354934
				0.370878
			</DataArray>
			<DataArray type="Float64" Name="pressure" Format="ascii">
				5.20658
				5.16835
				5.04104
				5.09246
				4.82451
				4.92356
				4.555
				4.70581
				4.26869
				4.45073
				4.0316
				4.21186
				3.91039
				4.05996
				3.93492
				4.03714
				4.09049
				4.14295
				4.34187
				4.35164
				4.63978
				4.62095
				4.93512
				4.90344
				5.18685
				5.1566
				5.36032
				5.34473
				5.42119
				5.43546
				5.39551
				5.42028
				5.39597
				5.39415
				5.42133
				5.42124
				5.35637
				5.43403
				5.1803
				5.34033
				4.92606
				5.1499
				4.628
				4.89445
				4.32694
				4.60947
				4.07184
				4.33733
				3.91192
				4.12542
				3.88268
				4.01603
				3.99951
				4.03502
				4.23367
				4.18349
				4.51922
				4.42064
				4.78995
				4.67632
				5.00865
				4.89603
				5.14132
				5.05547
				5.0661
				5.0943
				5.00663
				5.04362
				4.91532
				4.95006
				4.81289
				4.82893
				4.70698
				4.69309
				4.60134
				4.55472
				4.50931
				4.43394
				4.46414
				4.36449
				4.49828
				4.3821
				4.62014
				4.49626
				4.79547
				4.67948
				4.98491
				4.88962
				5.15311
				5.08652
				5.27254
				5.23885
				5.32855
				5.32561
				5.3291
				5.34558
				5.32863
				5.34064
				5.32726
				5.34501
				5.26987
				5.32378
				5.14865
				5.23513
				4.97854
				5.08084
				4.78697
				4.88181
				4.60918
				4.66921
				4.48469
				4.48316
				4.44857
				4.36612
				4.4929
				4.34641
				4.58515
				4.41505
				4.6913
				4.53589
				4.79771
				4.67469
				4.90128
				4.81149
				4.99517
				4.93458
				5.05916
				5.02984
				5.01614
				5.00354
				4.99661
				4.99091
				4.96239
				4.95405
				4.91651
				4.91269
				4.85872
				4.86473
				4.79493
				4.81305
				4.73822
				4.76785
				4.70542
				4.74225
				4.71154
				4.74805
				4.76267
				4.79214
				4.8525
				4.87022
				4.95977
				4.96652
				5.06138
				5.06154
				5.14018
				5.13826
				5.18877
				5.18613
				5.20943
				5.19811
				5.20868
				5.20545
				5.1873
				5.19752
				5.1377
				5.18462
				5.05758
				5.1357
				4.95447
				5.05774
				4.84555
				4.96136
				4.75406
				4.86361
				4.70164
				4.78415
				4.69494
				4.73906
				4.72786
				4.73286
				4.78529
				4.75863
				4.85023
				4.80451
				4.90943
				4.85723
				4.95689
				4.90648
				4.99297
				4.94933
				5.01144
				4.98704
				4.97667
				4.98258
				4.95918
				4.96837
				4.94483
				4.9475
				4.92776
				4.92717
				4.90686
				4.90383
				4.88527
				4.87816
				4.86848
				4.85522
				4.8626
				4.84209
				4.8733
				4.84566
				4.90183
				4.86903
				4.94317
				4.90996
				4.98999
				4.96129
				5.03361
				5.01312
				5.0667
				5.0564
				5.08379
				5.08483
				5.08801
				5.09749
				5.08773
				5.09974
				5.08297
				5.09688
				5.06507
				5.08351
				5.03118
				5.05424
				4.98673
				5.01006
				4.93909
				4.95731
				4.89705
				4.90509
				4.86806
				4.86345
				4.85727
				4.83968
				4.86342
				4.83611
				4.88075
				4.84961
				4.90308
				4.87322
				4.92482
				4.89975
				4.94275
				4.92402
				4.95792
				4.94532
				4.97619
				4.96715
				4.9555
				4.95201
				4.95085
				4.94745
				4.94471
				4.94024
				4.93653
				4.93438
				4.92685
				4.92783
				4.91769
				4.92165
				4.91168
				4.91796
				4.91137
				4.91887
				4.91806
				4.92574
				4.93146
				4.93871
				4.95008
				4.95616
				4.97088
				4.97535
				4.9904
				4.99327
				5.00596
				5.00736
				5.01601
				5.01584
				5.02042
				5.01715
				5.02022
				5.01874
				5.01532
				5.01671
				5.00477
				5.01499
				4.9887
				5.00606
				4.9687
				4.99153
				4.94749
				4.9732
				4.92857
				4.95368
				4.91505
				4.93602
				4.90842
				4.92299
				4.90893
				4.91622
				4.91528
				4.91554
				4.92487
				4.91955
				4.93504
				4.92613
				4.94371
				4.93311
				4.9503
				4.93938
				4.95412
				4.94687
				4.94495
				4.94428
				4.94002
				4.94027
				4.93861
				4.93747
				4.93682
				4.93579
				4.93491
				4.93373
				4.93377
				4.93187
				4.9344
				4.93134
				4.93762
				4.93323
				4.94384
				4.93823
				4.95216
				4.94601
				4.96142
				4.9555
				4.97025
				4.96539
				4.97746
				4.97428
				4.98228
				4.98112
				4.98432
				4.98529
				4.98464
				4.98712
				4.98448
				4.9872
				4.98389
				4.98682
				4.98159
				4.98469
				4.97651
				4.98022
				4.96908
				4.97312
				4.96006
				4.96399
				4.95068
				4.95391
				4.9423
				4.94432
				4.93611
				4.93652
				4.93302
				4.93159
				4.93258
				4.92986
				4.93394
				4.93061
				4.9361
				4.93273
				4.93816
				4.93507
				4.93981
				4.93703
				4.94756
				4.94141
				4.94217
				4.94262
				4.94073
				4.94073
				4.94023
				4.93995
				4.93958
				4.93991
				4.93907
				4.9399
				4.93907
				4.94025
				4.93996
				4.94131
				4.942
				4.94336
				4.94549
				4.94697
				4.95029
				4.95181
				4.95537
				4.95661
				4.96015
				4.96107
				4.96416
				4.96475
				4.96717
				4.96741
				4.96911
				4.96895
				4.96997
				4.96934
				4.96988
				4.96963
				4.96885
				4.96916
				4.96675
				4.96862
				4.96359
				4.96694
				4.95946
				4.96415
				4.95459
				4.96037
				4.94947
				4.95585
				4.94467
				4.95103
				4.94123
				4.94623
				4.93922
				4.94268
				4.93841
				4.94069
				4.93852
				4.93971
				4.93915
				4.93946
				4.93991
				4.93957
				4.94051
				4.93971
				4.94158
				4.9407
				4.9428
				4.94153
				4.94231
				4.94088
				4.94211
				4.94173
				4.94189
				4.94166
				4.94182
				4.9416
				4.94204
				4.94175
				4.94261
				4.94226
				4.94353
				4.9432
				4.94724
				4.94532
				4.95102
				4.94912
				4.95469
				4.95278
				4.95793
				4.95626
				4.96054
				4.95928
				4.96243
				4.96166
				4.96355
				4.96329
				4.96406
				4.96422
				4.964
				4.96444
				4.96338
				4.96409
				4.96216
				4.96306
				4.96019
				4.96133
				4.95753
				4.95888
				4.95428
				4.95582
				4.95061
				4.95232
				4.94688
				4.94869
				4.94325
				4.94495
				4.94235
				4.94286
				4.94181
				4.94195
				4.94165
				4.94149
				4.9418
				4.94142
				4.94211
				4.94157
				4.94243
				4.94175
				4.94561
				4.94232
			</DataArray>
			<DataArray type="Float64" Name="velocity" NumberOfComponents="3" Format="ascii">
				0.0334352 -0.117862 0
				0.292756 0.0339782 0
				0.192471 -0.413359 0
				0.354261 -0.238143 0
				0.459655 -0.649429 0
				0.502512 -0.484258 0
				0.805698 -0.796672 0
				0.759154 -0.673288 0
				1.17302 -0.813813 0
				1.06605 -0.776121 0
				1.49225 -0.685385 0
				1.37112 -0.751482 0
				1.69746 -0.43401 0
				1.6096 -0.584777 0
				1.75029 -0.117684 0
				1.72569 -0.311976 0
				1.65376 0.194531 0
				1.69976 -0.00413003 0
				1.44139 0.447736 0
				1.54942 0.271191 0
				1.15937 0.609682 0
				1.31743 0.469689 0
				0.852298 0.667946 0
				1.04959 0.572194 0
				0.557772 0.624273 0
				0.78596 0.575736 0
				0.305606 0.491238 0
				0.560811 0.489367 0
				0.116538 0.293918 0
				0.399823 0.336274 0
				0.015562 0.0850416 0
				0.286905 0.16362 0
				0.0162578 -0.0889815 0
				0.205343 -0.00216307 0
				0.119128 -0.300096 0
				0.290242 -0.168678 0
				0.308813 -0.497117 0
				0.401222 -0.342699 0
				0.562072 -0.629652 0
				0.563745 -0.495311 0
				0.857971 -0.672815 0
				0.790357 -0.581023 0
				1.16678 -0.613897 0
				1.05554 -0.57676 0
				1.45101 -0.450942 0
				1.32518 -0.47332 0
				1.66612 -0.196063 0
				1.55934 -0.273406 0
				1.7658 0.118887 0
				1.71222 0.004232 0
				1.71618 0.43941 0
				1.74085 0.315891 0
				1.51367 0.696579 0
				1.62718 0.59448 0
				1.19603 0.832124 0
				1.39007 0.768815 0
				0.828925 0.823104 0
				1.08453 0.802152 0
				0.481427 0.684979 0
				0.774758 0.708595 0
				0.210713 0.459714 0
				0.511505 0.529915 0
				0.0420386 0.176637 0
				0.343349 0.296411 0
				0.437902 -0.0310776 0
				0.319511 -0.000983307 0
				0.502809 -0.100971 0
				0.349186 -0.0884546 0
				0.601623 -0.178491 0
				0.422357 -0.193152 0
				0.734325 -0.242901 0
				0.562026 -0.281572 0
				0.90423 -0.275125 0
				0.74012 -0.339002 0
				1.09281 -0.254069 0
				0.951199 -0.34477 0
				1.25889 -0.167644 0
				1.16259 -0.279315 0
				1.35477 -0.0239914 0
				1.318 -0.141938 0
				1.3507 0.14347 0
				1.36896 0.0402251 0
				1.24853 0.287038 0
				1.30471 0.221239 0
				1.09183 0.374902 0
				1.15526 0.358587 0
				0.920389 0.396625 0
				0.963559 0.431564 0
				0.766524 0.357136 0
				0.76629 0.436463 0
				0.651676 0.271944 0
				0.590744 0.380302 0
				0.576151 0.166202 0
				0.451569 0.277487 0
				0.479811 0.0639385 0
				0.319088 0.14532 0
				0.483911 -0.0683204 0
				0.222812 -0.00167126 0
				0.576595 -0.170652 0
				0.323328 -0.149743 0
				0.652894 -0.276616 0
				0.452583 -0.281891 0
				0.76908 -0.361619 0
				0.592875 -0.384603 0
				0.924353 -0.400758 0
				0.769684 -0.440534 0
				1.09738 -0.378473 0
				0.968376 -0.435258 0
				1.25595 -0.289627 0
				1.1618 -0.361617 0
				1.36017 -0.144345 0
				1.31333 -0.223067 0
				1.36574 0.0256976 0
				1.37966 -0.040049 0
				1.27006 0.172404 0
				1.32986 0.144891 0
				1.10246 0.261768 0
				1.17376 0.28531 0
				0.910737 0.285332 0
				0.959715 0.3535 0
				0.736444 0.255151 0
				0.744627 0.349869 0
				0.598505 0.19256 0
				0.562091 0.294075 0
				0.492686 0.117145 0
				0.41734 0.207375 0
				0.429755 0.0378553 0
				0.325855 0.103714 0
				0.455033 -0.0115871 0
				0.491686 0.00210037 0
				0.539878 -0.0666537 0
				0.598138 -0.0299795 0
				0.665654 -0.129099 0
				0.730687 -0.0605456 0
				0.801045 -0.163188 0
				0.833213 -0.0989413 0
				0.933138 -0.160897 0
				0.934636 -0.11973 0
				1.04718 -0.123638 0
				1.02902 -0.114431 0
				1.13176 -0.0575075 0
				1.10741 -0.0805672 0
				1.17777 0.0290861 0
				1.16049 -0.021376 0
				1.17694 0.123262 0
				1.17881 0.0541235 0
				1.12936 0.207105 0
				1.15584 0.131563 0
				1.04122 0.263925 0
				1.09538 0.193158 0
				0.932371 0.283417 0
				1.0117 0.226163 0
				0.823778 0.264885 0
				0.923885 0.2254 0
				0.729563 0.2151 0
				0.848679 0.194222 0
				0.646402 0.144591 0
				0.794661 0.14247 0
				0.521531 0.0556091 0
				0.75545 0.0829296 0
				0.525668 -0.0591483 0
				0.712215 -0.00222401 0
				0.647007 -0.147961 0
				0.755619 -0.0861702 0
				0.730866 -0.218617 0
				0.795661 -0.145803 0
				0.826136 -0.26833 0
				0.850576 -0.197533 0
				0.935884 -0.286598 0
				0.926829 -0.228466 0
				1.04597 -0.266602 0
				1.01577 -0.228752 0
				1.13534 -0.208922 0
				1.10061 -0.19497 0
				1.18384 -0.123791 0
				1.16212 -0.132223 0
				1.18499 -0.0279975 0
				1.18572 -0.053282 0
				1.13857 0.060325 0
				1.16738 0.0238851 0
				1.0529 0.128134 0
				1.11361 0.0847155 0
				0.936903 0.16696 0
				1.03389 0.120044 0
				0.801611 0.170555 0
				0.937437 0.126482 0
				0.661395 0.137089 0
				0.832994 0.106308 0
				0.528386 0.0740275 0
				0.726359 0.067751 0
				0.446688 0.0145535 0
				0.590653 0.0341362 0
				0.615559 -0.0185325 0
				0.499618 -0.000294445 0
				0.819307 -0.0224606 0
				0.618149 -0.0249382 0
				0.900217 -0.0358751 0
				0.782044 -0.0550611 0
				0.959235 -0.0413314 0
				0.881147 -0.067731 0
				1.00692 -0.0372094 0
				0.955794 -0.0663118 0
				1.0457 -0.022765 0
				1.0137 -0.0524547 0
				1.07389 0.00205567 0
				1.05689 -0.0264799 0
				1.08757 0.0351411 0
				1.08316 0.010239 0
				1.08287 0.0715325 0
				1.08863 0.0534298 0
				1.05856 0.103021 0
				1.07181 0.0959924 0
				1.02085 0.122569 0
				1.03495 0.129412 0
				0.977735 0.125927 0
				0.984766 0.147254 0
				0.937987 0.113094 0
				0.930426 0.146463 0
				0.908171 0.0877923 0
				0.880196 0.128126 0
				0.890563 0.0556359 0
				0.837462 0.0964777 0
				0.866704 0.0207227 0
				0.78776 0.0546335 0
				0.866849 -0.0233732 0
				0.750176 -0.00134452 0
				0.891183 -0.0582162 0
				0.788244 -0.0572212 0
				0.909465 -0.0902795 0
				0.838445 -0.0989971 0
				0.939964 -0.11539 0
				0.881817 -0.130536 0
				0.98042 -0.127884 0
				0.932764 -0.148617 0
				1.02422 -0.124007 0
				0.987833 -0.148982 0
				1.06252 -0.103739 0
				1.03868 -0.130514 0
				1.08718 -0.0713516 0
				1.07604 -0.0962566 0
				1.09186 -0.0339575 0
				1.09304 -0.052694 0
				1.07776 8.1775e-05 0
				1.08736 -0.00846249 0
				1.04884 0.0257161 0
				1.06048 0.0292239 0
				1.00903 0.0407818 0
				1.01628 0.0560179 0
				0.960001 0.0453071 0
				0.956952 0.0705093 0
				0.899189 0.0399981 0
				0.880251 0.0723464 0
				0.815742 0.0263375 0
				0.778012 0.0597304 0
				0.61365 0.0204114 0
				0.611258 0.0287634 0
				0.622493 -0.0029183 0
				0.635303 0.00139525 0
				0.854187 -0.020689 0
				0.860845 -0.0149646 0
				0.938033 -0.0252533 0
				0.953362 -0.0100292 0
				0.984719 -0.0213809 0
				0.989736 -0.0118363 0
				1.01361 -0.0124614 0
				1.01234 -0.00985459 0
				1.03189 0.000385994 0
				1.02786 -0.00349788 0
				1.04185 0.0165127 0
				1.03787 0.00693175 0
				1.0435 0.0346719 0
				1.04204 0.0204254 0
				1.03664 0.0525765 0
				1.03966 0.0351798 0
				1.02241 0.0670861 0
				1.03042 0.0486553 0
				1.00194 0.0754118 0
				1.0157 0.0578669 0
				0.97861 0.0757415 0
				0.998006 0.0608398 0
				0.956044 0.0681023 0
				0.980677 0.0569418 0
				0.936653 0.0540385 0
				0.966725 0.0470919 0
				0.919042 0.0357119 0
				0.957978 0.0332754 0
				0.891276 0.0136032 0
				0.952681 0.0183304 0
				0.891307 -0.0153528 0
				0.944902 -0.000825613 0
				0.919608 -0.0374473 0
				0.953189 -0.0199786 0
				0.937605 -0.0556945 0
				0.958805 -0.0348549 0
				0.957425 -0.0695921 0
				0.967957 -0.0485242 0
				0.980402 -0.0769691 0
				0.982301 -0.0581469 0
				1.00409 -0.076273 0
				0.999981 -0.0617282 0
				1.02479 -0.0674825 0
				1.01795 -0.0583479 0
				1.0391 -0.052439 0
				1.03282 -0.0486525 0
				1.04587 -0.0339665 0
				1.04207 -0.0346412 0
				1.04397 -0.01525 0
				1.04429 -0.0193477 0
				1.03361 0.00138159 0
				1.03981 -0.00535806 0
				1.01474 0.014656 0
				1.02935 0.00548914 0
				0.98506 0.0239152 0
				1.01326 0.0121659 0
				0.937187 0.0280269 0
				0.98993 0.01436 0
				0.851309 0.0235 0
				0.952535 0.0126466 0
				0.621229 0.00500121 0
				0.858727 0.0172622 0
				0.820291 -0.0207919 0
				0.639122 0.00117169 0
				0.976795 -0.00259459 0
				0.872484 -0.00781761 0
				1.00217 -0.00114787 0
				0.970978 -0.00788656 0
				1.01403 0.00113475 0
				1.00036 -0.00472607 0
				1.02089 0.00452213 0
				1.01448 -0.000425385 0
				1.02482 0.00908636 0
				1.02225 0.0050044 0
				1.02601 0.0145799 0
				1.02602 0.0116175 0
				1.02422 0.0203934 0
				1.02606 0.0190111 0
				1.01935 0.0257402 0
				1.02223 0.0263408 0
				1.01196 0.0293132 0
				1.01504 0.0324342 0
				1.00347 0.0301016 0
				1.00546 0.0359608 0
				0.995336 0.0279415 0
				0.994919 0.0361683 0
				0.988815 0.0233081 0
				0.984932 0.0330266 0
				0.984698 0.0170707 0
				0.976638 0.027124 0
				0.983148 0.0102145 0
				0.970356 0.0193868 0
				0.979484 0.00343574 0
				0.962058 0.0105165 0
				0.979605 -0.00446279 0
				0.95626 -0.000521182 0
				0.983522 -0.0111888 0
				0.962364 -0.0115237 0
				0.985302 -0.017963 0
				0.970874 -0.0203322 0
				0.989637 -0.0240722 0
				0.977389 -0.0279585 0
				0.996353 -0.0285297 0
				0.985896 -0.0337012 0
				1.00465 -0.0304675 0
				0.996062 -0.0366332 0
				1.01324 -0.029417 0
				1.00673 -0.0361699 0
				1.02066 -0.0255546 0
				1.01637 -0.0323521 0
				1.02548 -0.0198905 0
				1.02353 -0.0259392 0
				1.02713 -0.0137683 0
				1.02726 -0.0182811 0
				1.02571 -0.00800725 0
				1.02703 -0.0105815 0
				1.02151 -0.00323405 0
				1.02298 -0.00371056 0
				1.0143 0.000296638 0
				1.01484 0.00191629 0
				1.00203 0.00265308 0
				1.00025 0.00634974 0
				0.976047 0.00408648 0
				0.970118 0.00957 0
				0.820163 0.022615 0
				0.870056 0.00988747 0
				0.819792 -0.000613443 0
				0.822644 0.000705121 0
				0.985107 -0.0022392 0
				0.978234 -0.00495927 0
				1.00768 0.000223078 0
				1.00827 0.00104574 0
				1.01564 0.00312527 0
				1.01494 0.00255292 0
				1.01889 0.00608385 0
				1.01782 0.00442017 0
				1.01986 0.00904131 0
				1.01895 0.00660833 0
				1.01923 0.0118143 0
				1.01883 0.00888444 0
				1.01717 0.0141181 0
				1.01754 0.0108962 0
				1.01354 0.0161837 0
				1.015 0.0122858 0
				1.00857 0.0175848 0
				1.01125 0.0133184 0
				1.00338 0.0174496 0
				1.00693 0.0138004 0
				0.998575 0.0158799 0
				1.00289 0.0129575 0
				0.994613 0.0132052 0
				0.999591 0.0110598 0
				0.991668 0.00984666 0
				0.997326 0.00849796 0
				0.989473 0.00618121 0
				0.996174 0.00566916 0
				0.984942 0.00223838 0
				0.99592 0.00292737 0
				0.984989 -0.00278024 0
				0.994725 -0.000249698 0
				0.989669 -0.00670027 0
				0.996074 -0.00341468 0
				0.991977 -0.010318 0
				0.996435 -0.00611938 0