<VTKFile type="UnstructuredGrid" version="0.1" byte_order="LittleEndian">
<UnstructuredGrid>
	<Piece NumberOfPoints="288" NumberOfCells="512">
		<CellData Scalars="density" Vectors="velocity">
			<DataArray type="Float64" Name="density" Format="ascii">
				0.948239
				0.950389
				0.945478
				0.949746
				0.937704
				0.946597
				0.923043
				0.938755
				0.901413
				0.9251
				0.875221
				0.906369
				0.850103
				0.885825
				0.83465
				0.869629
				0.837378
				0.865333
				0.860931
				0.877694
				0.900021
				0.90521
				0.946017
				0.9418
				0.991143
				0.980665
				1.02958
				1.01622
				1.0573
				1.04438
				1.07177
				1.06236
				1.07177
				1.06854
				1.0573
				1.06236
				1.02958
				1.04438
				0.991143
				1.01622
				0.946017
				0.980665
				0.900021
				0.9418
				0.860931
				0.90521
				0.837378
				0.877694
				0.83465
				0.865333
				0.850103
				0.869629
				0.875221
				0.885825
				0.901413
				0.906369
				0.923043
				0.9251
				0.937704
				0.938755
				0.945478
				0.946597
				0.948239
				0.949746
				0.962998
				0.959229
				0.964689
				0.959639
				0.965198
				0.959065
				0.961907
				0.954747
				0.954232
				0.9458
				0.943675
				0.933111
				0.933603
				0.919311
				0.928427
				0.908842
				0.931823
				0.906969
				0.944615
				0.917004
				0.964346
				0.937837
				0.987031
				0.96496
				1.00896
				0.993292
				1.02739
				1.01878
				1.04053
				1.03865
				1.04733
				1.05119
				1.04733
				1.05546
				1.04053
				1.05119
				1.02739
				1.03865
				1.00896
				1.01878
				0.987031
				0.993292
				0.964346
				0.96496
				0.944615
				0.937837
				0.931823
				0.917004
				0.928427
				0.906969
				0.933603
				0.908842
				0.943675
				0.919311
				0.954232
				0.933111
				0.961907
				0.9458
				0.965198
				0.954747
				0.964689
				0.959065
				0.962998
				0.959639
				0.967568
				0.971474
				0.97071
				0.973973
				0.972739
				0.978569
				0.971258
				0.980633
				0.966749
				0.978793
				0.960809
				0.974325
				0.955733
				0.969367
				0.954146
				0.966195
				0.95803
				0.966719
				0.96759
				0.971814
				0.981147
				0.980884
				0.996166
				0.992218
				1.01033
				1.00384
				1.02199
				1.01414
				1.03016
				1.02206
				1.03435
				1.027
				1.03435
				1.02867
				1.03016
				1.027
				1.02199
				1.02206
				1.01033
				1.01414
				0.996166
				1.00384
				0.981147
				0.992218
				0.96759
				0.980884
				0.95803
				0.971814
				0.954146
				0.966719
				0.955733
				0.966195
				0.960809
				0.969367
				0.966749
				0.974325
				0.971258
				0.978793
				0.972739
				0.980633
				0.97071
				0.978569
				0.967568
				0.973973
				0.977808
				0.972421
				0.983511
				0.975738
				0.988522
				0.981489
				0.989724
				0.98434
				0.988409
				0.984051
				0.986351
				0.982176
				0.984816
				0.980171
				0.984713
				0.979356
				0.98655
				0.980726
				0.990273
				0.984609
				0.995283
				0.990521
				1.00072
				0.997442
				1.00579
				1.00428
				1.00992
				1.01018
				1.0128
				1.01463
				1.01426
				1.01736
				1.01426
				1.01828
				1.0128
				1.01736
				1.00992
				1.01463
				1.00579
				1.01018
				1.00072
				1.00428
				0.995283
				0.997442
				0.990273
				0.990521
				0.98655
				0.984609
				0.984713
				0.980726
				0.984816
				0.979356
				0.986351
				0.980171
				0.988409
				0.982176
				0.989724
				0.984051
				0.988522
				0.98434
				0.983511
				0.981489
				0.977808
				0.975738
				0.978832
				0.981705
				0.985119
				0.985334
				0.990172
				0.991254
				0.991709
				0.993934
				0.991515
				0.994026
				0.990887
				0.993337
				0.990571
				0.992735
				0.991055
				0.992654
				0.992559
				0.993341
				0.994981
				0.994837
				0.997956
				0.996955
				1.00102
				0.999357
				1.00379
				1.00169
				1.00599
				1.00368
				1.00749
				1.00517
				1.00825
				1.00609
				1.00825
				1.00639
				1.00749
				1.00609
				1.00599
				1.00517
				1.00379
				1.00368
				1.00102
				1.00169
				0.997956
				0.999357
				0.994981
				0.996955
				0.992559
				0.994837
				0.991055
				0.993341
				0.990571
				0.992654
				0.990887
				0.992735
				0.991515
				0.993337
				0.991709
				0.994026
				0.990172
				0.993934
				0.985119
				0.991254
				0.978832
				0.985334
				0.987442
				0.983241
				0.992243
				0.986979
				0.995546
				0.992617
				0.996245
				0.99496
				0.996119
				0.995336
				0.995948
				0.995234
				0.995968
				0.995168
				0.996282
				0.995378
				0.996914
				0.995981
				0.997822
				0.996977
				0.998876
				0.998241
				0.999932
				0.999592
				1.00087
				1.00086
				1.0016
				1.00191
				1.0021
				1.00268
				1.00235
				1.00314
				1.00235
				1.0033
				1.0021
				1.00314
				1.0016
				1.00268
				1.00087
				1.00191
				0.999932
				1.00086
				0.998876
				0.999592
				0.997822
				0.998241
				0.996914
				0.996977
				0.996282
				0.995981
				0.995968
				0.995378
				0.995948
				0.995168
				0.996119
				0.995234
				0.996245
				0.995336
				0.995546
				0.99496
				0.992243
				0.992617
				0.987442
				0.986979
				0.989034
				0.990772
				0.993601
				0.993061
				0.996409
				0.996223
				0.997005
				0.997276
				0.997074
				0.997378
				0.997113
				0.997378
				0.997243
				0.99744
				0.99751
				0.997625
				0.997896
				0.997945
				0.998446
				0.998333
				0.999059
				0.998808
				0.999653
				0.999295
				1.00017
				0.999737
				1.00056
				1.0001
				1.00083
				1.00035
				1.00096
				1.00051
				1.00096
				1.00056
				1.00083
				1.00051
				1.00056
				1.00035
				1.00017
				1.0001
				0.999653
				0.999737
				0.999059
				0.999295
				0.998446
				0.998808
				0.997896
				0.998333
				0.99751
				0.997945
				0.997243
				0.997625
				0.997113
				0.99744
				0.997074
				0.997378
				0.997005
				0.997378
				0.996409
				0.997276
				0.993601
				0.996223
				0.989034
				0.993061
				0.994871
				0.992183
				0.996975
				0.994399
				0.99809
				0.997229
				0.998184
				0.998003
				0.998116
				0.998047
				0.998076
				0.998042
				0.99809
				0.99809
				0.998184
				0.998226
				0.998971
				0.99835
				0.999269
				0.998807
				0.999513
				0.999186
				0.999702
				0.999506
				0.999841
				0.999764
				0.999936
				0.999957
				0.999995
				1.00009
				1.00002
				1.00017
				1.00002
				1.00019
				0.999995
				1.00017
				0.999936
				1.00009
				0.999841
				0.999957
				0.999702
				0.999764
				0.999513
				0.999506
				0.999269
				0.999186
				0.998971
				0.998807
				0.998184
				0.99835
				0.99809
				0.998226
				0.998076
				0.99809
				0.998116
				0.998042
				0.998184
				0.998047
				0.99809
				0.998003
				0.996975
				0.997229
				0.994871
				0.994399
			</DataArray>
			<DataArray type="Float64" Name="mach-number" Format="ascii">
				0.0328135
				0.0451325
				0.0896862
				0.0763772
				0.163585
				0.139773
				0.251081
				0.218875
				0.346643
				0.307393
				0.442412
				0.398301
				0.527318
				0.482536
				0.58692
				0.548616
				0.607522
				0.584382
				0.58532
				0.582677
				0.528896
				0.546109
				0.450539
				0.483756
				0.359575
				0.404903
				0.261761
				0.316664
				0.160908
				0.224964
				0.0635055
				0.139012
				0.0635055
				0.0930942
				0.160908
				0.139013
				0.261761
				0.224965
				0.359575
				0.316664
				0.450539
				0.404903
				0.528896
				0.483756
				0.58532
				0.546109
				0.607522
				0.582677
				0.58692
				0.584382
				0.527318
				0.548616
				0.442412
				0.482536
				0.346643
				0.398301
				0.251081
				0.307393
				0.163585
				0.218875
				0.0896861
				0.139773
				0.0328134
				0.0763771
				0.122543
				0.0843795
				0.171021
				0.112788
				0.238941
				0.175881
				0.310257
				0.251446
				0.378097
				0.329481
				0.437588
				0.403291
				0.483951
				0.466609
				0.511842
				0.512671
				0.516607
				0.534437
				0.497363
				0.527696
				0.458192
				0.494438
				0.405787
				0.441461
				0.347019
				0.376426
				0.288642
				0.306118
				0.238733
				0.237546
				0.208365
				0.181676
				0.208365
				0.158231
				0.238733
				0.181676
				0.288642
				0.237546
				0.347019
				0.306118
				0.405787
				0.376426
				0.458192
				0.441461
				0.497363
				0.494438
				0.516607
				0.527696
				0.511842
				0.534437
				0.483951
				0.512671
				0.437587
				0.466609
				0.378097
				0.403291
				0.310257
				0.329481
				0.238941
				0.251447
				0.171021
				0.175881
				0.122543
				0.112788
				0.16733
				0.187494
				0.214386
				0.214031
				0.277003
				0.27007
				0.335742
				0.325815
				0.385334
				0.372057
				0.424522
				0.408309
				0.452201
				0.434932
				0.466297
				0.451136
				0.46475
				0.455212
				0.447639
				0.446269
				0.418029
				0.425757
				0.380822
				0.397311
				0.341314
				0.365486
				0.304667
				0.334764
				0.275968
				0.309176
				0.260009
				0.292155
				0.260009
				0.286173
				0.275968
				0.292155
				0.304667
				0.309176
				0.341314
				0.334764
				0.380822
				0.365486
				0.418029
				0.397311
				0.447639
				0.425757
				0.46475
				0.446269
				0.466297
				0.455212
				0.452201
				0.451136
				0.424522
				0.434932
				0.385334
				0.408309
				0.335742
				0.372057
				0.277003
				0.325815
				0.214386
				0.27007
				0.16733
				0.214031
				0.256172
				0.228611
				0.297386
				0.253817
				0.342243
				0.304516
				0.37363
				0.348919
				0.393959
				0.38029
				0.407217
				0.401752
				0.414964
				0.415808
				0.4171
				0.422982
				0.413256
				0.422744
				0.403887
				0.414969
				0.390566
				0.400862
				0.375523
				0.382822
				0.360982
				0.363701
				0.34873
				0.346125
				0.339983
				0.332156
				0.335453
				0.323225
				0.335453
				0.320157
				0.339983
				0.323225
				0.34873
				0.332156
				0.360982
				0.346125
				0.375523
				0.363701
				0.390566
				0.382822
				0.403887
				0.400862
				0.413256
				0.414969
				0.4171
				0.422744
				0.414964
				0.422982
				0.407217
				0.415808
				0.393959
				0.401752
				0.37363
				0.38029
				0.342243
				0.348919
				0.297386
				0.304516
				0.256172
				0.253817
				0.287281
				0.295864
				0.32388
				0.316802
				0.359718
				0.353102
				0.38051
				0.376581
				0.391671
				0.38813
				0.39796
				0.394158
				0.400972
				0.39731
				0.400844
				0.398092
				0.397512
				0.396425
				0.391363
				0.39241
				0.383358
				0.386609
				0.374752
				0.379941
				0.366726
				0.373379
				0.360151
				0.367708
				0.35556
				0.363426
				0.353215
				0.36079
				0.353215
				0.359904
				0.35556
				0.36079
				0.360151
				0.363426
				0.366726
				0.367708
				0.374752
				0.373379
				0.383358
				0.379941
				0.391363
				0.386609
				0.397512
				0.39241
				0.400844
				0.396425
				0.400972
				0.398092
				0.39796
				0.39731
				0.391671
				0.394158
				0.38051
				0.38813
				0.359718
				0.376581
				0.32388
				0.353101
				0.28728
				0.316802
				0.332532
				0.317922
				0.358103
				0.335903
				0.378008
				0.365184
				0.385741
				0.381263
				0.388481
				0.387464
				0.389579
				0.39007
				0.389704
				0.391101
				0.38888
				0.390885
				0.387111
				0.389396
				0.384578
				0.386739
				0.381627
				0.383248
				0.378663
				0.379429
				0.376032
				0.37579
				0.373955
				0.372716
				0.372543
				0.370434
				0.371834
				0.369045
				0.371834
				0.36858
				0.372543
				0.369045
				0.373955
				0.370434
				0.376032
				0.372716
				0.378663
				0.37579
				0.381627
				0.379429
				0.384578
				0.383248
				0.387111
				0.386739
				0.38888
				0.389396
				0.389704
				0.390885
				0.389579
				0.391101
				0.388481
				0.39007
				0.385741
				0.387464
				0.378008
				0.381263
				0.358103
				0.365184
				0.332532
				0.335903
				0.345936
				0.348261
				0.366561
				0.360292
				0.381031
				0.377473
				0.385458
				0.38434
				0.386569
				0.385866
				0.386825
				0.386193
				0.386591
				0.386098
				0.385859
				0.385629
				0.384605
				0.384766
				0.38299
				0.383534
				0.381212
				0.382128
				0.379494
				0.380709
				0.378011
				0.379429
				0.376864
				0.378387
				0.376096
				0.377633
				0.375714
				0.377182
				0.375714
				0.377032
				0.376096
				0.377182
				0.376864
				0.377633
				0.378011
				0.378387
				0.379494
				0.379429
				0.381212
				0.380709
				0.38299
				0.382128
				0.384605
				0.383534
				0.385859
				0.384766
				0.386591
				0.385629
				0.386825
				0.386098
				0.386569
				0.386193
				0.385458
				0.385866
				0.381031
				0.38434
				0.366561
				0.377473
				0.345936
				0.360292
				0.361614
				0.356112
				0.375107
				0.365994
				0.382979
				0.379422
				0.384387
				0.383951
				0.384398
				0.384566
				0.384249
				0.384562
				0.384011
				0.384385
				0.383662
				0.384044
				0.382536
				0.383624
				0.381621
				0.382476
				0.380831
				0.381424
				0.380177
				0.380508
				0.379667
				0.379756
				0.3793
				0.379185
				0.379065
				0.37879
				0.378951
				0.378562
				0.378951
				0.378487
				0.379065
				0.378562
				0.3793
				0.37879
				0.379667
				0.379185
				0.380177
				0.379756
				0.380831
				0.380508
				0.381621
				0.381424
				0.382536
				0.382476
				0.383662
				0.383624
				0.384011
				0.384044
				0.384249
				0.384385
				0.384398
				0.384562
				0.384387
				0.384566
				0.382979
				0.383951
				0.375107
				0.379422
				0.361614
				0.365994
			</DataArray>
			<DataArray type="Float64" Name="pressure" Format="ascii">
				4.84738
				4.86179
				4.81417
				4.84829
				4.74154
				4.80592
				4.6222
				4.72874
				4.45695
				4.61235
				4.26357
				4.46363
				4.08103
				4.30687
				3.96594
				4.18421
				3.97287
				4.14486
				4.11929
				4.21919
				4.37332
				4.39804
				4.68063
				4.64273
				4.98939
				4.90821
				5.25778
				5.15537
				5.45439
				5.35369
				5.55804
				5.48143
				5.55804
				5.52546
				5.45439
				5.48143
				5.25778
				5.35369
				4.98939
				5.15536
				4.68063
				4.90821
				4.37332
				4.64273
				4.11929
				4.39804
				3.97287
				4.21919
				3.96594
				4.14486
				4.08103
				4.18421
				4.26357
				4.30687
				4.45695
				4.46363
				4.6222
				4.61235
				4.74154
				4.72874
				4.81417
				4.80592
				4.84738
				4.84829
				4.92644
				4.9115
				4.91126
				4.90143
				4.87801
				4.86797
				4.82137
				4.80641
				4.74166
				4.71682
				4.65005
				4.60735
				4.56836
				4.49655
				4.52447
				4.41361
				4.54157
				4.39219
				4.62463
				4.45333
				4.75717
				4.58988
				4.91217
				4.77243
				5.06388
				4.96676
				5.19258
				5.14428
				5.28496
				5.28435
				5.333
				5.37342
				5.333
				5.40392
				5.28496
				5.37342
				5.19258
				5.28435
				5.06388
				5.14428
				4.91217
				4.96676
				4.75717
				4.77243
				4.62463
				4.58988
				4.54157
				4.45333
				4.52447
				4.39219
				4.56836
				4.41361
				4.65005
				4.49655
				4.74166
				4.60736
				4.82137
				4.71682
				4.87801
				4.80641
				4.91126
				4.86797
				4.92644
				4.90143
				4.93652
				4.95701
				4.92323
				4.95251
				4.89391
				4.93837
				4.84967
				4.91173
				4.7954
				4.87183
				4.73951
				4.82453
				4.69497
				4.78051
				4.67758
				4.75255
				4.69955
				4.75217
				4.76183
				4.78462
				4.85299
				4.84551
				4.95566
				4.92294
				5.05359
				5.00314
				5.13492
				5.07473
				5.1923
				5.13005
				5.2218
				5.16465
				5.2218
				5.1764
				5.1923
				5.16465
				5.13492
				5.13005
				5.05359
				5.07473
				4.95566
				5.00314
				4.85299
				4.92294
				4.76183
				4.84551
				4.69955
				4.78462
				4.67758
				4.75217
				4.69497
				4.75255
				4.73951
				4.78051
				4.7954
				4.82453
				4.84967
				4.87183
				4.89391
				4.91173
				4.92323
				4.93837
				4.93652
				4.95251
				4.95345
				4.937
				4.9494
				4.93478
				4.93965
				4.92565
				4.92272
				4.90854
				4.9014
				4.88605
				4.88106
				4.86204
				4.86718
				4.84201
				4.86466
				4.8327
				4.87639
				4.83984
				4.90169
				4.86519
				4.93624
				4.90522
				4.97399
				4.95278
				5.00931
				5.00017
				5.0382
				5.04135
				5.05833
				5.07251
				5.06859
				5.09173
				5.06859
				5.09821
				5.05833
				5.09173
				5.0382
				5.07251
				5.00931
				5.04135
				4.97399
				5.00017
				4.93624
				4.95278
				4.90169
				4.90522
				4.87639
				4.86519
				4.86466
				4.83984
				4.86718
				4.8327
				4.88106
				4.84201
				4.9014
				4.86204
				4.92272
				4.88605
				4.93965
				4.90854
				4.9494
				4.92565
				4.95345
				4.93478
				4.93267
				4.94677
				4.93342
				4.94641
				4.93038
				4.94443
				4.92341
				4.93905
				4.91482
				4.9309
				4.90718
				4.9228
				4.90337
				4.91722
				4.90589
				4.91606
				4.9159
				4.92061
				4.93253
				4.93098
				4.95319
				4.94577
				4.97461
				4.96259
				4.99399
				4.97896
				5.00946
				4.99296
				5.02005
				5.00344
				5.0254
				5.00985
				5.0254
				5.012
				5.02005
				5.00985
				5.00946
				5.00344
				4.99399
				4.99296
				4.97461
				4.97896
				4.95319
				4.96259
				4.93253
				4.94577
				4.9159
				4.93098
				4.90589
				4.92061
				4.90337
				4.91606
				4.90718
				4.91722
				4.91482
				4.9228
				4.92341
				4.9309
				4.93038
				4.93905
				4.93342
				4.94443
				4.93267
				4.94641
				4.94534
				4.93325
				4.94543
				4.93584
				4.94455
				4.93883
				4.94205
				4.93838
				4.93923
				4.93603
				4.9374
				4.93363
				4.93732
				4.93251
				4.93952
				4.93374
				4.94409
				4.93794
				4.95064
				4.94498
				4.95825
				4.95397
				4.96588
				4.9636
				4.97265
				4.97264
				4.97799
				4.98017
				4.98161
				4.98571
				4.98344
				4.98906
				4.98344
				4.99017
				4.98161
				4.98906
				4.97799
				4.98571
				4.97265
				4.98017
				4.96588
				4.97264
				4.95825
				4.9636
				4.95064
				4.95397
				4.94409
				4.94498
				4.93952
				4.93794
				4.93732
				4.93374
				4.9374
				4.93251
				4.93923
				4.93363
				4.94205
				4.93603
				4.94455
				4.93838
				4.94543
				4.93883
				4.94534
				4.93584
				4.93878
				4.94784
				4.94295
				4.94767
				4.94493
				4.94738
				4.94456
				4.94666
				4.94382
				4.94563
				4.94359
				4.94498
				4.94431
				4.94509
				4.94629
				4.94629
				4.94948
				4.9487
				4.95382
				4.95206
				4.95864
				4.95604
				4.96331
				4.96011
				4.96736
				4.96383
				4.9705
				4.96688
				4.97261
				4.96911
				4.97366
				4.97045
				4.97366
				4.97089
				4.97261
				4.97045
				4.9705
				4.96911
				4.96736
				4.96688
				4.96331
				4.96383
				4.95864
				4.96011
				4.95382
				4.95604
				4.94948
				4.95206
				4.94629
				4.9487
				4.94431
				4.94629
				4.94359
				4.94509
				4.94382
				4.94498
				4.94456
				4.94563
				4.94493
				4.94666
				4.94295
				4.94738
				4.93878
				4.94767
				4.95366
				4.94456
				4.95182
				4.94682
				4.95001
				4.94918
				4.9485
				4.94889
				4.94733
				4.94785
				4.94655
				4.94709
				4.94617
				4.94683
				4.94629
				4.94722
				4.95048
				4.94761
				4.95442
				4.95221
				4.95798
				4.95627
				4.96102
				4.95988
				4.96347
				4.9629
				4.96529
				4.96526
				4.96649
				4.96693
				4.96708
				4.96791
				4.96708
				4.96823
				4.96649
				4.96791
				4.96529
				4.96693
				4.96347
				4.96526
				4.96102
				4.9629
				4.95798
				4.95988
				4.95442
				4.95627
				4.95048
				4.95221
				4.94629
				4.94761
				4.94617
				4.94722
				4.94655
				4.94683
				4.94733
				4.94709
				4.9485
				4.94785
				4.95001
				4.94889
				4.95182
				4.94918
				4.95366
				4.94682
			</DataArray>
			<DataArray type="Float64" Name="velocity" NumberOfComponents="3" Format="ascii">
				0.0580714 -0.0658299 0
				0.120782 -9.82919e-08 0
				0.126977 -0.203016 0
				0.163049 -0.122904 0
				0.27009 -0.341306 0
				0.281942 -0.243661 0
				0.486876 -0.452672 0
				0.465041 -0.348682 0
				0.761621 -0.501706 0
				0.699606 -0.412436 0
				1.05986 -0.459963 0
				0.962411 -0.409337 0
				1.33011 -0.315659 0
				1.21669 -0.323349 0
				1.51154 -0.0824116 0
				1.41546 -0.154554 0
				1.55347 0.195576 0
				1.5115 0.0736629 0
				1.44509 0.454584 0
				1.47869 0.313685 0
				1.22213 0.639802 0
				1.32945 0.511049 0
				0.939982 0.722825 0
				1.10489 0.627934 0
				0.650642 0.69848 0
				0.852346 0.649827 0
				0.396161 0.576995 0
				0.613072 0.579941 0
				0.208399 0.378901 0
				0.419258 0.432926 0
				0.109005 0.131901 0
				0.29382 0.230782 0
				0.109005 -0.131901 0
				0.250482 -1.25199e-07 0
				0.208399 -0.378901 0
				0.29382 -0.230783 0
				0.396162 -0.576996 0
				0.419259 -0.432926 0
				0.650642 -0.69848 0
				0.613073 -0.579941 0
				0.939982 -0.722825 0
				0.852346 -0.649826 0
				1.22213 -0.639802 0
				1.10489 -0.627934 0
				1.44509 -0.454583 0
				1.32945 -0.511049 0
				1.55347 -0.195576 0
				1.47868 -0.313684 0
				1.51154 0.0824116 0
				1.5115 -0.0736628 0
				1.33011 0.315659 0
				1.41546 0.154554 0
				1.05986 0.459962 0
				1.21669 0.323349 0
				0.761621 0.501706 0
				0.96241 0.409337 0
				0.486876 0.452672 0
				0.699606 0.412436 0
				0.27009 0.341306 0
				0.465041 0.348682 0
				0.126977 0.203016 0
				0.281942 0.243661 0
				0.0580714 0.0658297 0
				0.163049 0.122904 0
				0.323391 -0.054493 0
				0.225916 -1.06992e-07 0
				0.4309 -0.15096 0
				0.278658 -0.115385 0
				0.596033 -0.220682 0
				0.415541 -0.217129 0
				0.780562 -0.257287 0
				0.600515 -0.291527 0
				0.964527 -0.253378 0
				0.808233 -0.323585 0
				1.13104 -0.204247 0
				1.01645 -0.301887 0
				1.26191 -0.109783 0
				1.2007 -0.221886 0
				1.33675 0.021829 0
				1.33389 -0.0875837 0
				1.33881 0.169225 0
				1.38906 0.083623 0
				1.26679 0.301254 0
				1.35143 0.258649 0
				1.13909 0.39036 0
				1.23106 0.399428 0
				0.984268 0.422479 0
				1.0581 0.4794 0
				0.829868 0.396816 0
				0.867565 0.489151 0
				0.697383 0.32121 0
				0.689566 0.432368 0
				0.601638 0.208083 0
				0.54689 0.320681 0
				0.551658 0.0719387 0
				0.455198 0.170303 0
				0.551658 -0.0719387 0
				0.423632 -5.70354e-08 0
				0.601638 -0.208083 0
				0.455198 -0.170303 0
				0.697383 -0.321211 0
				0.54689 -0.320681 0
				0.829868 -0.396816 0
				0.689567 -0.432368 0
				0.984268 -0.422479 0
				0.867565 -0.489151 0
				1.13909 -0.39036 0
				1.05811 -0.4794 0
				1.26679 -0.301254 0
				1.23106 -0.399428 0
				1.33881 -0.169225 0
				1.35143 -0.258649 0
				1.33675 -0.0218289 0
				1.38906 -0.0836229 0
				1.26191 0.109783 0
				1.33389 0.0875836 0
				1.13104 0.204247 0
				1.2007 0.221887 0
				0.964527 0.253378 0
				1.01645 0.301887 0
				0.780562 0.257287 0
				0.808233 0.323585 0
				0.596033 0.220682 0
				0.600515 0.291527 0
				0.4309 0.15096 0
				0.415541 0.217129 0
				0.323391 0.0544927 0
				0.278658 0.115385 0
				0.444913 -0.0452345 0
				0.501123 1.21425e-07 0
				0.558519 -0.120018 0
				0.565885 -0.0766826 0
				0.716752 -0.163454 0
				0.707405 -0.122038 0
				0.870013 -0.176237 0
				0.851753 -0.137497 0
				1.00271 -0.160339 0
				0.973446 -0.130404 0
				1.10943 -0.117288 0
				1.0701 -0.102987 0
				1.18487 -0.0490768 0
				1.14145 -0.0558815 0
				1.221 0.0384563 0
				1.18384 0.00861741 0
				1.21075 0.132036 0
				1.19132 0.0827986 0
				1.15551 0.213052 0
				1.16159 0.153132 0
				1.06758 0.265246 0
				1.1007 0.205156 0
				0.965039 0.280614 0
				1.02168 0.229483 0
				0.865114 0.259539 0
				0.939115 0.223907 0
				0.780866 0.207795 0
				0.865063 0.191718 0
				0.720795 0.133633 0
				0.807701 0.139038 0
				0.689706 0.0460304 0
				0.77177 0.0728375 0
				0.689706 -0.0460304 0
				0.75957 -3.40094e-08 0
				0.720795 -0.133633 0
				0.77177 -0.0728376 0
				0.780866 -0.207795 0
				0.807701 -0.139038 0
				0.865114 -0.259539 0
				0.865063 -0.191718 0
				0.965039 -0.280614 0
				0.939115 -0.223907 0
				1.06758 -0.265246 0
				1.02168 -0.229483 0
				1.15551 -0.213052 0
				1.1007 -0.205156 0
				1.21075 -0.132036 0
				1.16159 -0.153132 0
				1.221 -0.0384563 0
				1.19132 -0.0827986 0
				1.18487 0.0490768 0
				1.18384 -0.0086174 0
				1.10943 0.117288 0
				1.14145 0.0558815 0
				1.00271 0.160339 0
				1.0701 0.102987 0
				0.870013 0.176237 0
				0.973446 0.130404 0
				0.716752 0.163454 0
				0.851753 0.137497 0
				0.558518 0.120018 0
				0.707405 0.122039 0
				0.444913 0.0452346 0
				0.565885 0.0766825 0
				0.681647 -0.0278493 0
				0.609489 -1.51538e-08 0
				0.786911 -0.0620314 0
				0.673053 -0.0560835 0
				0.902794 -0.0662173 0
				0.802963 -0.0822611 0
				0.984258 -0.0575883 0
				0.918103 -0.0837915 0
				1.03715 -0.0426085 0
				1.00007 -0.0718769 0
				1.07163 -0.0211707 0
				1.05645 -0.0500851 0
				1.09151 0.00692281 0
				1.09333 -0.0189636 0
				1.09621 0.039526 0
				1.11158 0.0202288 0
				1.08474 0.0716754 0
				1.10939 0.0630556 0
				1.05876 0.0971934 0
				1.08665 0.102076 0
				1.02313 0.11123 0
				1.0475 0.12963 0
				0.984257 0.111878 0
				0.999465 0.140919 0
				0.947939 0.100029 0
				0.95068 0.135086 0
				0.918281 0.0782312 0
				0.907725 0.114311 0
				0.897641 0.0495535 0
				0.874892 0.0822557 0
				0.887124 0.0169408 0
				0.85451 0.0428963 0
				0.887124 -0.0169408 0
				0.847623 -3.46027e-09 0
				0.897641 -0.0495535 0
				0.85451 -0.0428963 0
				0.918281 -0.0782312 0
				0.874892 -0.0822557 0
				0.947939 -0.100029 0
				0.907725 -0.114311 0
				0.984257 -0.111878 0
				0.95068 -0.135086 0
				1.02313 -0.11123 0
				0.999465 -0.140919 0
				1.05876 -0.0971933 0
				1.0475 -0.12963 0
				1.08474 -0.0716754 0
				1.08665 -0.102076 0
				1.09621 -0.039526 0
				1.10939 -0.0630556 0
				1.09151 -0.00692281 0
				1.11158 -0.0202288 0
				1.07163 0.0211707 0
				1.09333 0.0189636 0
				1.03715 0.0426085 0
				1.05645 0.0500851 0
				0.984257 0.0575883 0
				1.00007 0.0718769 0
				0.902794 0.0662173 0
				0.918103 0.0837915 0
				0.786911 0.0620314 0
				0.802963 0.0822611 0
				0.681647 0.0278492 0
				0.673053 0.0560834 0
				0.762805 -0.0196467 0
				0.785825 1.31031e-08 0
				0.856638 -0.040353 0
				0.839315 -0.0301585 0
				0.949022 -0.037297 0
				0.932541 -0.0323418 0
				1.00278 -0.0276392 0
				0.993 -0.022973 0
				1.03165 -0.0166185 0
				1.02274 -0.0140168 0
				1.04786 -0.00336327 0
				1.03822 -0.00460918 0
				1.05548 0.0126908 0
				1.04623 0.00674015 0
				1.05479 0.0304543 0
				1.04804 0.0199012 0
				1.04567 0.0472894 0
				1.04343 0.0332957 0
				1.02928 0.0600499 0
				1.03274 0.0445377 0
				1.00836 0.0663478 0
				1.01756 0.0514526 0
				0.986313 0.0653404 0
				1.00039 0.0528721 0
				0.966132 0.0576345 0
				0.983743 0.048852 0
				0.949878 0.044678 0
				0.969554 0.0403162 0
				0.938674 0.028146 0
				0.958962 0.0285318 0
				0.932997 0.00959717 0
				0.952493 0.0147367 0
				0.932997 -0.00959719 0
				0.950325 -7.25327e-09 0
				0.938674 -0.028146 0
				0.952493 -0.0147367 0
				0.949878 -0.044678 0
				0.958962 -0.0285318 0
				0.966132 -0.0576345 0
				0.969554 -0.0403162 0
				0.986313 -0.0653404 0
				0.983743 -0.048852 0
				1.00836 -0.0663478 0
				1.00039 -0.0528721 0
				1.02928 -0.0600499 0
				1.01756 -0.0514526 0
				1.04567 -0.0472893 0
				1.03274 -0.0445376 0
				1.05479 -0.0304543 0
				1.04343 -0.0332957 0
				1.05548 -0.0126908 0
				1.04804 -0.0199012 0
				1.04786 0.00336326 0
				1.04623 -0.00674016 0
				1.03165 0.0166185 0
				1.03822 0.00460918 0
				1.00278 0.0276392 0
				1.02274 0.0140168 0
				0.949022 0.037297 0
				0.993 0.022973 0
				0.856638 0.040353 0
				0.932541 0.0323418 0
				0.762805 0.0196468 0
				0.839315 0.0301585 0
				0.880447 -0.011444 0
				0.8426 -5.75141e-08 0
				0.945773 -0.0179263 0
				0.888585 -0.0195912 0
				0.996731 -0.00946144 0
				0.963657 -0.017807 0
				1.01655 -0.00286145 0
				1.00498 -0.00936238 0
				1.02355 0.00146666 0
				1.02093 -0.00316138 0
				1.02632 0.00585214 0
				1.0276 0.00236828 0
				1.02659 0.010823 0
				1.03021 0.00856818 0
				1.02442 0.0160245 0
				1.02958 0.0154791 0
				1.01982 0.0206388 0
				1.02565 0.0222936 0
				1.01329 0.0236939 0
				1.01873 0.027745 0
				1.00573 0.024609 0
				1.00972 0.0307697 0
				0.998188 0.0232641 0
				0.999943 0.0308309 0
				0.991531 0.0199541 0
				0.990702 0.0280233 0
				0.986305 0.0151776 0
				0.982953 0.0228763 0
				0.982765 0.00944847 0
				0.977234 0.016076 0
				0.980991 0.00320321 0
				0.973767 0.00827012 0
				0.980991 -0.00320322 0
				0.97261 -4.49382e-09 0
				0.982765 -0.00944847 0
				0.973767 -0.00827013 0
				0.986305 -0.0151776 0
				0.977234 -0.016076 0
				0.991531 -0.0199541 0
				0.982953 -0.0228763 0
				0.998188 -0.0232641 0
				0.990702 -0.0280233 0
				1.00573 -0.024609 0
				0.999943 -0.0308309 0
				1.01329 -0.0236939 0
				1.00972 -0.0307697 0
				1.01982 -0.0206388 0
				1.01873 -0.027745 0
				1.02442 -0.0160245 0
				1.02565 -0.0222935 0
				1.02659 -0.010823 0
				1.02958 -0.0154791 0
				1.02632 -0.00585214 0
				1.03021 -0.00856818 0
				1.02355 -0.00146664 0
				1.0276 -0.00236828 0
				1.01655 0.00286145 0
				1.02093 0.00316139 0
				0.996731 0.00946145 0
				1.00498 0.00936237 0
				0.945773 0.0179263 0
				0.963656 0.017807 0
				0.880447 0.0114439 0
				0.888585 0.019591 0
				0.914642 -0.00704198 0
				0.920851 3.13761e-08 0
				0.967335 -0.00945237 0
				0.951499 -0.00966354 0
				1.00435 -0.00248781 0
				0.995303 -0.00435929 0
				1.01568 0.00180476 0
				1.01281 0.00150574 0
				1.01849 0.00411636 0
				1.01667 0.00378097 0
				1.0191 0.00624942 0
				1.01745 0.00528172 0
				1.01848 0.00852293 0
				1.01718 0.00679942 0
				1.0166 0.0108351 0
				1.01596 0.00829983 0
				1.0134 0.0128799 0
				1.01376 0.00962877 0
				1.00929 0.014102 0
				1.01065 0.0106814 0
				1.00479 0.0142141 0
				1.0071 0.0110314 0
				1.00044 0.013167 0
				1.00354 0.0105569 0
				0.996708 0.0111333 0
				1.00032 0.00930055 0
				0.993829 0.00838393 0
				0.997721 0.00743145 0
				0.991905 0.00518556 0
				0.995842 0.00514936 0
				0.990949 0.00175239 0
				0.99472 0.0026279 0
				0.990949 -0.0017524 0
				0.994348 -6.64074e-10 0