<VTKFile type="UnstructuredGrid" version="0.1" byte_order="LittleEndian">
<UnstructuredGrid>
	<Piece NumberOfPoints="288" NumberOfCells="512">
		<CellData Scalars="density" Vectors="velocity">
			<DataArray type="Float64" Name="density" Format="ascii">
				0.950732
				0.950745
				0.947969
				0.949969
				0.940076
				0.946521
				0.925103
				0.93838
				0.903008
				0.924512
				0.876378
				0.905731
				0.851104
				0.885461
				0.835945
				0.870022
				0.839333
				0.866961
				0.863605
				0.880778
				0.903258
				0.909643
				0.949648
				0.947323
				0.995045
				0.987015
				1.03367
				1.02318
				1.06151
				1.05174
				1.07604
				1.06995
				1.07604
				1.0762
				1.06151
				1.06995
				1.03367
				1.05174
				0.995045
				1.02318
				0.949648
				0.987015
				0.903258
				0.947323
				0.863605
				0.909643
				0.839333
				0.880778
				0.835945
				0.866961
				0.851104
				0.870022
				0.876378
				0.885461
				0.903008
				0.905731
				0.925103
				0.924512
				0.940076
				0.93838
				0.947969
				0.946521
				0.950732
				0.949969
				0.964146
				0.963466
				0.965781
				0.964021
				0.966206
				0.963654
				0.962824
				0.959291
				0.955077
				0.949965
				0.944541
				0.93665
				0.934684
				0.922147
				0.92999
				0.911089
				0.934095
				0.908857
				0.947666
				0.918732
				0.968092
				0.939475
				0.99132
				0.966505
				1.01364
				0.994733
				1.03235
				1.02012
				1.04566
				1.03991
				1.05254
				1.05239
				1.05254
				1.05665
				1.04566
				1.05239
				1.03235
				1.03991
				1.01364
				1.02012
				0.99132
				0.994733
				0.968092
				0.966505
				0.947666
				0.939475
				0.934095
				0.918732
				0.92999
				0.908857
				0.934684
				0.911089
				0.944541
				0.922147
				0.955077
				0.93665
				0.962824
				0.949965
				0.966206
				0.959291
				0.965781
				0.963654
				0.964146
				0.964021
				0.971615
				0.972933
				0.974933
				0.975489
				0.976928
				0.980154
				0.97513
				0.982237
				0.970187
				0.980425
				0.963816
				0.976042
				0.958356
				0.971238
				0.956448
				0.968294
				0.960069
				0.969116
				0.969414
				0.974544
				0.982794
				0.983924
				0.997669
				0.995502
				1.01172
				1.00729
				1.02329
				1.0177
				1.03141
				1.02568
				1.03557
				1.03065
				1.03557
				1.03233
				1.03141
				1.03065
				1.02329
				1.02568
				1.01172
				1.0177
				0.997669
				1.00729
				0.982794
				0.995502
				0.969414
				0.983924
				0.960069
				0.974544
				0.956448
				0.969116
				0.958356
				0.968294
				0.963816
				0.971238
				0.970187
				0.976042
				0.97513
				0.980425
				0.976928
				0.982237
				0.974933
				0.980154
				0.971615
				0.975489
				0.979408
				0.975844
				0.98529
				0.979265
				0.990425
				0.985027
				0.991711
				0.987616
				0.990498
				0.987009
				0.988556
				0.984883
				0.987148
				0.982691
				0.987184
				0.981722
				0.989161
				0.982951
				0.993005
				0.986698
				0.998102
				0.992486
				1.00359
				0.9993
				1.00868
				1.00605
				1.01282
				1.01188
				1.01569
				1.01628
				1.01715
				1.01899
				1.01715
				1.0199
				1.01569
				1.01899
				1.01282
				1.01628
				1.00868
				1.01188
				1.00359
				1.00605
				0.998102
				0.9993
				0.993005
				0.992486
				0.989161
				0.986698
				0.987184
				0.982951
				0.987148
				0.981722
				0.988556
				0.982691
				0.990498
				0.984883
				0.991711
				0.987009
				0.990425
				0.987616
				0.98529
				0.985027
				0.979408
				0.979265
				0.981756
				0.983292
				0.988065
				0.987065
				0.992933
				0.993184
				0.994256
				0.99599
				0.993944
				0.996197
				0.993261
				0.995612
				0.992911
				0.995098
				0.993362
				0.995098
				0.994824
				0.995857
				0.997194
				0.997409
				1.00011
				0.99956
				1.00313
				1.00198
				1.00585
				1.00431
				1.00801
				1.00629
				1.00949
				1.00777
				1.01024
				1.00868
				1.01024
				1.00898
				1.00949
				1.00868
				1.00801
				1.00777
				1.00585
				1.00629
				1.00313
				1.00431
				1.00011
				1.00198
				0.997194
				0.99956
				0.994824
				0.997409
				0.993362
				0.995857
				0.992911
				0.995098
				0.993261
				0.995098
				0.993944
				0.995612
				0.994256
				0.996197
				0.992933
				0.99599
				0.988065
				0.993184
				0.981756
				0.987065
				0.989004
				0.985779
				0.994034
				0.989499
				0.997496
				0.994991
				0.998307
				0.997179
				0.99828
				0.997511
				0.998194
				0.997425
				0.998284
				0.997392
				0.998658
				0.997636
				0.999346
				0.998266
				1.00029
				0.999271
				1.00137
				1.00053
				1.00243
				1.00187
				1.00337
				1.00312
				1.0041
				1.00415
				1.0046
				1.00491
				1.00485
				1.00536
				1.00485
				1.00552
				1.0046
				1.00536
				1.0041
				1.00491
				1.00337
				1.00415
				1.00243
				1.00312
				1.00137
				1.00187
				1.00029
				1.00053
				0.999346
				0.999271
				0.998658
				0.998266
				0.998284
				0.997636
				0.998194
				0.997392
				0.99828
				0.997425
				0.998307
				0.997511
				0.997496
				0.997179
				0.994034
				0.994991
				0.989004
				0.989499
				0.991215
				0.991917
				0.995603
				0.994442
				0.998254
				0.997897
				0.998849
				0.999089
				0.998975
				0.999281
				0.999077
				0.999358
				0.99927
				0.999492
				0.999603
				0.99973
				1.00008
				1.00009
				1.00067
				1.00055
				1.00129
				1.00106
				1.00189
				1.00157
				1.00239
				1.00203
				1.00278
				1.0024
				1.00303
				1.00267
				1.00316
				1.00283
				1.00316
				1.00288
				1.00303
				1.00283
				1.00278
				1.00267
				1.00239
				1.0024
				1.00189
				1.00203
				1.00129
				1.00157
				1.00067
				1.00106
				1.00008
				1.00055
				0.999603
				1.00009
				0.99927
				0.99973
				0.999077
				0.999492
				0.998975
				0.999358
				0.998849
				0.999281
				0.998254
				0.999089
				0.995603
				0.997897
				0.991215
				0.994442
				0.994709
				0.993327
				0.99736
				0.995439
				0.998946
				0.998142
				0.999424
				0.999064
				0.999708
				0.999389
				0.999998
				0.999664
				1.00032
				0.999956
				1.00066
				1.00029
				1.00102
				1.00066
				1.00137
				1.00106
				1.00169
				1.00145
				1.00196
				1.0018
				1.00216
				1.00209
				1.00231
				1.00231
				1.0024
				1.00246
				1.00245
				1.00255
				1.00245
				1.00257
				1.0024
				1.00255
				1.00231
				1.00246
				1.00216
				1.00231
				1.00196
				1.00209
				1.00169
				1.0018
				1.00137
				1.00145
				1.00102
				1.00106
				1.00066
				1.00066
				1.00032
				1.00029
				0.999998
				0.999956
				0.999708
				0.999664
				0.999424
				0.999389
				0.998946
				0.999064
				0.99736
				0.998142
				0.994709
				0.995439
			</DataArray>
			<DataArray type="Float64" Name="mach-number" Format="ascii">
				0.0331137
				0.0446896
				0.0907147
				0.0769602
				0.166117
				0.14203
				0.255462
				0.222985
				0.352668
				0.313103
				0.449432
				0.404934
				0.534411
				0.489132
				0.59312
				0.554148
				0.612188
				0.58807
				0.588432
				0.584343
				0.530831
				0.54617
				0.451686
				0.482831
				0.360221
				0.403527
				0.262108
				0.31522
				0.161108
				0.223684
				0.0637228
				0.137947
				0.0637229
				0.092071
				0.161108
				0.137947
				0.262108
				0.223684
				0.360221
				0.31522
				0.451686
				0.403527
				0.530831
				0.482831
				0.588432
				0.54617
				0.612188
				0.584343
				0.59312
				0.58807
				0.534411
				0.554148
				0.449432
				0.489132
				0.352668
				0.404933
				0.255462
				0.313103
				0.166117
				0.222985
				0.0907146
				0.14203
				0.0331136
				0.0769601
				0.123192
				0.0843238
				0.172858
				0.113661
				0.241581
				0.178091
				0.312897
				0.254367
				0.380171
				0.332384
				0.438876
				0.405708
				0.484414
				0.468374
				0.51143
				0.513753
				0.515292
				0.534794
				0.495297
				0.527325
				0.455694
				0.493478
				0.403187
				0.44014
				0.34455
				0.374959
				0.286418
				0.304667
				0.236753
				0.236197
				0.206534
				0.180427
				0.206534
				0.157013
				0.236753
				0.180427
				0.286418
				0.236198
				0.34455
				0.304667
				0.403187
				0.37496
				0.455694
				0.44014
				0.495297
				0.493478
				0.515292
				0.527325
				0.51143
				0.534794
				0.484414
				0.513753
				0.438876
				0.468374
				0.380171
				0.405708
				0.312897
				0.332384
				0.241581
				0.254367
				0.172858
				0.178091
				0.123192
				0.113661
				0.168443
				0.188841
				0.215928
				0.215553
				0.278368
				0.271457
				0.336234
				0.326385
				0.384795
				0.371605
				0.423203
				0.407071
				0.450443
				0.433239
				0.464336
				0.4492
				0.462705
				0.453126
				0.445581
				0.444091
				0.41602
				0.423562
				0.37891
				0.395173
				0.33953
				0.363446
				0.303014
				0.332822
				0.274424
				0.307305
				0.258526
				0.290323
				0.258526
				0.284351
				0.274424
				0.290323
				0.303014
				0.307305
				0.33953
				0.332822
				0.37891
				0.363446
				0.41602
				0.395173
				0.445581
				0.423562
				0.462705
				0.444091
				0.464336
				0.453126
				0.450443
				0.4492
				0.423203
				0.433239
				0.384795
				0.407071
				0.336234
				0.371605
				0.278368
				0.326385
				0.215928
				0.271457
				0.168443
				0.215553
				0.257627
				0.230169
				0.298195
				0.255206
				0.34188
				0.305134
				0.372227
				0.348329
				0.392012
				0.378702
				0.405107
				0.399635
				0.412862
				0.413521
				0.415051
				0.420706
				0.411269
				0.420549
				0.401968
				0.412887
				0.388722
				0.398905
				0.373751
				0.380995
				0.359271
				0.362
				0.347061
				0.344538
				0.33834
				0.330664
				0.33382
				0.321796
				0.33382
				0.318751
				0.33834
				0.321796
				0.347061
				0.330664
				0.359271
				0.344538
				0.373751
				0.362
				0.388722
				0.380995
				0.401968
				0.398905
				0.411269
				0.412887
				0.415051
				0.420549
				0.412862
				0.420706
				0.405107
				0.413521
				0.392012
				0.399635
				0.372227
				0.378702
				0.34188
				0.348329
				0.298195
				0.305134
				0.257627
				0.255205
				0.288736
				0.29731
				0.324394
				0.317638
				0.358944
				0.35265
				0.378869
				0.375139
				0.389693
				0.386293
				0.395917
				0.392254
				0.398948
				0.395429
				0.398861
				0.396239
				0.395581
				0.394592
				0.389502
				0.390601
				0.381583
				0.384838
				0.373072
				0.378217
				0.365139
				0.371705
				0.358646
				0.366075
				0.354114
				0.361824
				0.3518
				0.359207
				0.3518
				0.358326
				0.354114
				0.359207
				0.358646
				0.361824
				0.365139
				0.366075
				0.373072
				0.371705
				0.381583
				0.378217
				0.389502
				0.384838
				0.395581
				0.390601
				0.398861
				0.394592
				0.398948
				0.396239
				0.395917
				0.395429
				0.389693
				0.392254
				0.378869
				0.386293
				0.358944
				0.375139
				0.324394
				0.35265
				0.288736
				0.317638
				0.334158
				0.319665
				0.358246
				0.336878
				0.376948
				0.364736
				0.384258
				0.379948
				0.386904
				0.385875
				0.387964
				0.388415
				0.388045
				0.389405
				0.387179
				0.389146
				0.385385
				0.387632
				0.382849
				0.384972
				0.379913
				0.381508
				0.376976
				0.377736
				0.374371
				0.374152
				0.372317
				0.371128
				0.37092
				0.368885
				0.370218
				0.36752
				0.370218
				0.367064
				0.37092
				0.36752
				0.372317
				0.368885
				0.374371
				0.371128
				0.376976
				0.374152
				0.379913
				0.377736
				0.382849
				0.381508
				0.385385
				0.384972
				0.387179
				0.387632
				0.388045
				0.389146
				0.387964
				0.389405
				0.386904
				0.388415
				0.384258
				0.385875
				0.376948
				0.379948
				0.358246
				0.364736
				0.334158
				0.336878
				0.348678
				0.352437
				0.367283
				0.362656
				0.380323
				0.377355
				0.384317
				0.383331
				0.385271
				0.384634
				0.385393
				0.384816
				0.385027
				0.384591
				0.384194
				0.384021
				0.382923
				0.383108
				0.381326
				0.381905
				0.379593
				0.380536
				0.377925
				0.379156
				0.376484
				0.377909
				0.375369
				0.376892
				0.374619
				0.376153
				0.374245
				0.37571
				0.374245
				0.375562
				0.374619
				0.37571
				0.375369
				0.376153
				0.376484
				0.376892
				0.377925
				0.377909
				0.379593
				0.379156
				0.381326
				0.380536
				0.382923
				0.381905
				0.384194
				0.383108
				0.385027
				0.384021
				0.385393
				0.384591
				0.385271
				0.384816
				0.384317
				0.384634
				0.380323
				0.383331
				0.367282
				0.377355
				0.348678
				0.362656
				0.371223
				0.363844
				0.377892
				0.370715
				0.382095
				0.38016
				0.383031
				0.383479
				0.383011
				0.383859
				0.382747
				0.383629
				0.38233
				0.383198
				0.381775
				0.382605
				0.381105
				0.381856
				0.380369
				0.380986
				0.379631
				0.380065
				0.378957
				0.379179
				0.378393
				0.3784
				0.377965
				0.377777
				0.37768
				0.377329
				0.377539
				0.377062
				0.377539
				0.376973
				0.37768
				0.377062
				0.377965
				0.377329
				0.378393
				0.377777
				0.378957
				0.3784
				0.379631
				0.379179
				0.380369
				0.380065
				0.381105
				0.380986
				0.381775
				0.381856
				0.38233
				0.382605
				0.382747
				0.383198
				0.383011
				0.383629
				0.383031
				0.383859
				0.382095
				0.383479
				0.377892
				0.38016
				0.371223
				0.370715
			</DataArray>
			<DataArray type="Float64" Name="pressure" Format="ascii">
				4.84216
				4.84353
				4.80874
				4.82897
				4.73511
				4.7843
				4.61356
				4.70485
				4.44525
				4.58683
				4.24927
				4.43783
				4.06613
				4.28312
				3.95319
				4.16559
				3.96419
				4.13406
				4.1146
				4.21711
				4.3713
				4.40364
				4.68001
				4.65421
				4.98939
				4.92392
				5.25802
				5.17397
				5.45468
				5.37417
				5.55834
				5.50295
				5.55834
				5.54732
				5.45468
				5.50295
				5.25801
				5.37417
				4.98939
				5.17397
				4.68001
				4.92392
				4.3713
				4.65421
				4.1146
				4.40364
				3.96419
				4.21711
				3.95319
				4.13406
				4.06613
				4.16559
				4.24927
				4.28312
				4.44525
				4.43783
				4.61356
				4.58683
				4.73511
				4.70485
				4.80874
				4.7843
				4.84216
				4.82897
				4.91401
				4.91823
				4.89763
				4.90855
				4.86311
				4.87539
				4.80581
				4.81285
				4.7261
				4.72086
				4.63531
				4.60801
				4.5556
				4.4936
				4.51514
				4.40766
				4.5368
				4.38439
				4.62453
				4.44452
				4.76094
				4.58016
				4.91876
				4.76151
				5.07237
				4.95445
				5.20227
				5.13063
				5.29534
				5.26962
				5.3437
				5.358
				5.3437
				5.38826
				5.29534
				5.358
				5.20227
				5.26962
				5.07237
				5.13063
				4.91876
				4.95445
				4.76094
				4.76151
				4.62453
				4.58016
				4.5368
				4.44452
				4.51514
				4.38439
				4.5556
				4.40766
				4.63531
				4.4936
				4.7261
				4.60802
				4.80581
				4.72086
				4.86311
				4.81285
				4.89762
				4.87539
				4.91401
				4.90855
				4.94241
				4.94725
				4.92895
				4.94239
				4.89863
				4.92777
				4.85271
				4.90131
				4.7965
				4.8622
				4.73868
				4.81606
				4.69231
				4.77345
				4.67323
				4.7472
				4.69365
				4.7488
				4.75447
				4.78327
				4.84425
				4.84588
				4.94567
				4.92453
				5.04253
				5.00545
				5.12303
				5.07739
				5.17985
				5.13283
				5.20907
				5.16745
				5.20907
				5.17919
				5.17985
				5.16745
				5.12303
				5.13283
				5.04253
				5.07739
				4.94567
				5.00545
				4.84425
				4.92453
				4.75447
				4.84588
				4.69365
				4.78327
				4.67323
				4.7488
				4.69231
				4.7472
				4.73868
				4.77345
				4.7965
				4.81606
				4.85271
				4.8622
				4.89863
				4.90131
				4.92895
				4.92777
				4.94241
				4.94239
				4.94442
				4.93915
				4.94063
				4.93677
				4.93166
				4.9269
				4.91581
				4.90856
				4.89555
				4.88484
				4.87616
				4.85982
				4.86317
				4.83893
				4.86151
				4.8288
				4.87402
				4.83508
				4.8999
				4.85949
				4.93477
				4.89856
				4.97259
				4.94522
				5.00782
				4.99182
				5.03654
				5.03236
				5.05651
				5.06306
				5.06668
				5.082
				5.06668
				5.08838
				5.05651
				5.082
				5.03654
				5.06306
				5.00782
				5.03236
				4.97259
				4.99182
				4.93477
				4.94522
				4.8999
				4.89856
				4.87402
				4.85949
				4.86151
				4.83508
				4.86317
				4.8288
				4.87616
				4.83893
				4.89555
				4.85982
				4.91581
				4.88484
				4.93166
				4.90856
				4.94063
				4.9269
				4.94442
				4.93676
				4.93127
				4.93768
				4.93152
				4.93778
				4.92767
				4.93692
				4.92005
				4.93281
				4.91111
				4.92572
				4.9033
				4.91841
				4.89933
				4.91341
				4.90161
				4.91272
				4.91125
				4.91764
				4.92741
				4.92821
				4.94753
				4.94303
				4.96843
				4.95974
				4.98734
				4.9759
				5.00244
				4.98967
				5.01278
				4.99995
				5.01799
				5.00623
				5.01799
				5.00833
				5.01278
				5.00623
				5.00244
				4.99995
				4.98734
				4.98967
				4.96843
				4.9759
				4.94753
				4.95974
				4.92741
				4.94303
				4.91125
				4.92821
				4.90161
				4.91764
				4.89933
				4.91272
				4.9033
				4.91341
				4.91111
				4.91841
				4.92005
				4.92572
				4.92767
				4.93281
				4.93152
				4.93692
				4.93127
				4.93778
				4.93576
				4.92941
				4.93729
				4.93166
				4.93797
				4.9341
				4.93666
				4.93343
				4.93473
				4.93124
				4.93356
				4.92914
				4.93395
				4.92831
				4.93645
				4.92973
				4.94117
				4.93396
				4.94769
				4.94086
				4.95515
				4.94959
				4.96254
				4.95889
				4.96904
				4.96756
				4.97413
				4.97477
				4.97758
				4.98005
				4.97931
				4.98324
				4.97931
				4.9843
				4.97758
				4.98324
				4.97413
				4.98005
				4.96904
				4.97477
				4.96254
				4.96756
				4.95515
				4.95889
				4.94769
				4.94959
				4.94117
				4.94086
				4.93645
				4.93396
				4.93395
				4.92973
				4.93356
				4.92831
				4.93473
				4.92914
				4.93666
				4.93124
				4.93797
				4.93343
				4.93729
				4.9341
				4.93576
				4.93166
				4.93248
				4.93535
				4.93619
				4.93695
				4.93842
				4.93961
				4.93886
				4.94081
				4.93899
				4.94102
				4.93948
				4.94133
				4.94073
				4.94219
				4.943
				4.94381
				4.94631
				4.94627
				4.95037
				4.94944
				4.95471
				4.95301
				4.95883
				4.95656
				4.96234
				4.95975
				4.96503
				4.96232
				4.96683
				4.96418
				4.96772
				4.96529
				4.96772
				4.96565
				4.96683
				4.96529
				4.96503
				4.96418
				4.96234
				4.96232
				4.95883
				4.95975
				4.95471
				4.95656
				4.95037
				4.95301
				4.94631
				4.94944
				4.943
				4.94627
				4.94073
				4.94381
				4.93948
				4.94219
				4.93899
				4.94133
				4.93886
				4.94102
				4.93842
				4.94081
				4.93619
				4.93961
				4.93248
				4.93695
				4.93297
				4.93234
				4.93681
				4.93451
				4.94016
				4.9379
				4.94216
				4.94005
				4.94387
				4.94172
				4.94572
				4.94344
				4.94779
				4.94535
				4.95008
				4.94756
				4.9525
				4.95007
				4.95489
				4.95278
				4.95708
				4.95546
				4.95894
				4.9579
				4.96039
				4.95992
				4.96142
				4.96147
				4.96208
				4.96253
				4.9624
				4.96314
				4.9624
				4.96334
				4.96208
				4.96314
				4.96142
				4.96253
				4.96039
				4.96147
				4.95894
				4.95992
				4.95708
				4.9579
				4.95489
				4.95546
				4.9525
				4.95278
				4.95008
				4.95007
				4.94779
				4.94756
				4.94572
				4.94535
				4.94387
				4.94344
				4.94216
				4.94172
				4.94016
				4.94005
				4.93681
				4.9379
				4.93297
				4.93451
			</DataArray>
			<DataArray type="Float64" Name="velocity" NumberOfComponents="3" Format="ascii">
				0.0587729 -0.0660626 0
				0.119349 -1.03854e-07 0
				0.128876 -0.204529 0
				0.162865 -0.125003 0
				0.274536 -0.345284 0
				0.284727 -0.248358 0
				0.494905 -0.459036 0
				0.471339 -0.35617 0
				0.773308 -0.509076 0
				0.709123 -0.421991 0
				1.07401 -0.466508 0
				0.974025 -0.419588 0
				1.34454 -0.319994 0
				1.22859 -0.332825 0
				1.52381 -0.0842008 0
				1.42551 -0.162213 0
				1.56201 0.195535 0
				1.51791 0.067953 0
				1.45 0.455069 0
				1.48096 0.309152 0
				1.22455 0.640017 0
				1.32849 0.50681 0
				0.941044 0.722534 0
				1.10207 0.62364 0
				0.651151 0.697783 0
				0.848776 0.645632 0
				0.396596 0.576157 0
				0.609414 0.576245 0
				0.208967 0.378233 0
				0.415799 0.430167 0
				0.109701 0.131647 0
				0.29058 0.229309 0
				0.109701 -0.131648 0
				0.247333 -1.26025e-07 0
				0.208968 -0.378233 0
				0.290581 -0.229309 0
				0.396597 -0.576158 0
				0.4158 -0.430167 0
				0.651151 -0.697783 0
				0.609415 -0.576245 0
				0.941043 -0.722534 0
				0.848776 -0.645631 0
				1.22455 -0.640017 0
				1.10207 -0.623639 0
				1.45 -0.455069 0
				1.32849 -0.50681 0
				1.56201 -0.195535 0
				1.48096 -0.309152 0
				1.52381 0.0842008 0
				1.51791 -0.067953 0
				1.34454 0.319994 0
				1.42551 0.162213 0
				1.07401 0.466508 0
				1.22859 0.332825 0
				0.773308 0.509076 0
				0.974025 0.419588 0
				0.494905 0.459036 0
				0.709123 0.421991 0
				0.274536 0.345284 0
				0.471339 0.35617 0
				0.128876 0.204529 0
				0.284727 0.248357 0
				0.0587729 0.0660624 0
				0.162865 0.125003 0
				0.324275 -0.0559924 0
				0.225424 -1.22181e-07 0
				0.433819 -0.154716 0
				0.279597 -0.117971 0
				0.600327 -0.225498 0
				0.419132 -0.221303 0
				0.78437 -0.262512 0
				0.605606 -0.296152 0
				0.966575 -0.258848 0
				0.813071 -0.327956 0
				1.13105 -0.209885 0
				1.01991 -0.30571 0
				1.26011 -0.115326 0
				1.20251 -0.224899 0
				1.33326 0.0166517 0
				1.33404 -0.0894461 0
				1.33359 0.164376 0
				1.38734 0.0829239 0
				1.26019 0.29649 0
				1.34777 0.25852 0
				1.13183 0.3856 0
				1.2259 0.399096 0
				0.977023 0.41792 0
				1.05224 0.478461 0
				0.823035 0.392804 0
				0.861712 0.487659 0
				0.691067 0.318092 0
				0.684181 0.430667 0
				0.595745 0.206115 0
				0.542115 0.319215 0
				0.545995 0.0712673 0
				0.450909 0.169459 0
				0.545995 -0.0712673 0
				0.419526 -4.79568e-08 0
				0.595745 -0.206115 0
				0.450909 -0.169459 0
				0.691067 -0.318092 0
				0.542115 -0.319215 0
				0.823035 -0.392804 0
				0.684181 -0.430667 0
				0.977023 -0.41792 0
				0.861712 -0.487659 0
				1.13183 -0.3856 0
				1.05224 -0.478461 0
				1.26019 -0.29649 0
				1.2259 -0.399096 0
				1.33359 -0.164375 0
				1.34777 -0.25852 0
				1.33326 -0.0166516 0
				1.38734 -0.0829237 0
				1.26011 0.115326 0
				1.33404 0.089446 0
				1.13105 0.209885 0
				1.20251 0.2249 0
				0.966575 0.258848 0
				1.01991 0.30571 0
				0.78437 0.262512 0
				0.813071 0.327956 0
				0.600327 0.225499 0
				0.605606 0.296152 0
				0.433819 0.154716 0
				0.419132 0.221303 0
				0.324275 0.0559921 0
				0.279597 0.117971 0
				0.447149 -0.0460081 0
				0.503849 1.19413e-07 0
				0.561418 -0.121731 0
				0.568753 -0.0780474 0
				0.718789 -0.165275 0
				0.709423 -0.124034 0
				0.869459 -0.178019 0
				0.851248 -0.139889 0
				0.999244 -0.162329 0
				0.970042 -0.133331 0
				1.10385 -0.119587 0
				1.0646 -0.106466 0
				1.1782 -0.0514892 0
				1.13487 -0.0596979 0
				1.2139 0.0361963 0
				1.17684 0.0047564 0
				1.20352 0.130022 0
				1.18419 0.0790964 0
				1.14832 0.211204 0
				1.15446 0.149685 0
				1.06061 0.26347 0
				1.09371 0.202037 0
				0.958446 0.278913 0
				1.01492 0.226787 0
				0.858974 0.258007 0
				0.932628 0.221722 0
				0.775164 0.206567 0
				0.858813 0.190095 0
				0.715431 0.132839 0
				0.801614 0.13798 0
				0.684526 0.0457556 0
				0.765772 0.0723204 0
				0.684526 -0.0457556 0
				0.7536 -3.17417e-08 0
				0.715431 -0.132839 0
				0.765772 -0.0723204 0
				0.775164 -0.206568 0
				0.801614 -0.13798 0
				0.858974 -0.258007 0
				0.858813 -0.190095 0
				0.958446 -0.278913 0
				0.932628 -0.221722 0
				1.06061 -0.26347 0
				1.01492 -0.226787 0
				1.14832 -0.211204 0
				1.09371 -0.202037 0
				1.20352 -0.130022 0
				1.15446 -0.149685 0
				1.2139 -0.0361963 0
				1.18419 -0.0790964 0
				1.1782 0.0514892 0
				1.17684 -0.00475639 0
				1.10385 0.119587 0
				1.13487 0.0596979 0
				0.999244 0.162329 0
				1.0646 0.106466 0
				0.869459 0.178019 0
				0.970042 0.133331 0
				0.718789 0.165275 0
				0.851248 0.139889 0
				0.561418 0.121731 0
				0.709423 0.124034 0
				0.447149 0.0460081 0
				0.568753 0.0780472 0
				0.684334 -0.0280423 0
				0.612699 -2.20982e-08 0
				0.787607 -0.0625199 0
				0.67565 -0.0563188 0
				0.900157 -0.0671431 0
				0.803221 -0.0825559 0
				0.97878 -0.0591491 0
				0.914951 -0.0843739 0
				1.03022 -0.0446717 0
				0.994167 -0.0729738 0
				1.06431 -0.0234509 0
				1.04911 -0.0516143 0
				1.08426 0.00465349 0
				1.08555 -0.0206773 0
				1.08917 0.0373899 0
				1.10384 0.0185365 0
				1.07794 0.0697265 0
				1.1019 0.0614798 0
				1.05219 0.0954613 0
				1.07949 0.10063 0
				1.0168 0.109747 0
				1.04071 0.128305 0
				0.978132 0.110673 0
				0.993051 0.139715 0
				0.941983 0.0991138 0
				0.944637 0.134031 0
				0.912443 0.077598 0
				0.902016 0.113449 0
				0.891873 0.049185 0
				0.86945 0.0816399 0
				0.881388 0.0168203 0
				0.849242 0.0425747 0
				0.881388 -0.0168203 0
				0.842415 -3.66544e-09 0
				0.891873 -0.049185 0
				0.849242 -0.0425747 0
				0.912443 -0.077598 0
				0.86945 -0.0816398 0
				0.941983 -0.0991138 0
				0.902016 -0.113449 0
				0.978132 -0.110673 0
				0.944637 -0.134031 0
				1.0168 -0.109747 0
				0.993051 -0.139715 0
				1.05219 -0.0954612 0
				1.04071 -0.128305 0
				1.07794 -0.0697265 0
				1.07949 -0.10063 0
				1.08917 -0.0373898 0
				1.1019 -0.0614798 0
				1.08426 -0.00465349 0
				1.10384 -0.0185365 0
				1.06431 0.0234509 0
				1.08555 0.0206773 0
				1.03022 0.0446717 0
				1.04911 0.0516143 0
				0.97878 0.059149 0
				0.994167 0.0729738 0
				0.900157 0.0671431 0
				0.914951 0.0843739 0
				0.787607 0.0625199 0
				0.803221 0.0825559 0
				0.684333 0.0280422 0
				0.67565 0.0563187 0
				0.765418 -0.0196931 0
				0.788303 1.16485e-08 0
				0.85654 -0.0405825 0
				0.84005 -0.0304264 0
				0.94537 -0.0379838 0
				0.929704 -0.0331777 0
				0.996799 -0.0288199 0
				0.987512 -0.0244511 0
				1.02477 -0.0180209 0
				1.01623 -0.0158124 0
				1.04082 -0.00473218 0
				1.03155 -0.00638831 0
				1.0485 0.0114544 0
				1.03965 0.00513307 0
				1.04793 0.0293397 0
				1.04155 0.0184858 0
				1.03894 0.0462592 0
				1.03701 0.0320376 0
				1.02275 0.0590689 0
				1.0264 0.0434147 0
				1.00207 0.0654134 0
				1.01133 0.0504545 0
				0.980281 0.0644807 0
				0.994288 0.0520119 0
				0.960351 0.0568953 0
				0.977773 0.0481501 0
				0.944309 0.0441081 0
				0.963692 0.0397874 0
				0.933258 0.0277864 0
				0.953177 0.0281812 0
				0.927662 0.00947429 0
				0.946753 0.0145628 0
				0.927662 -0.00947431 0
				0.9446 -6.054e-09 0
				0.933258 -0.0277864 0
				0.946753 -0.0145628 0
				0.944309 -0.0441081 0
				0.953177 -0.0281812 0
				0.96035 -0.0568953 0
				0.963692 -0.0397874 0
				0.980281 -0.0644807 0
				0.977773 -0.0481501 0
				1.00207 -0.0654134 0
				0.994288 -0.0520119 0
				1.02275 -0.0590689 0
				1.01133 -0.0504545 0
				1.03894 -0.0462592 0
				1.0264 -0.0434147 0
				1.04793 -0.0293397 0
				1.03701 -0.0320376 0
				1.0485 -0.0114544 0
				1.04155 -0.0184857 0
				1.04082 0.00473217 0
				1.03965 -0.00513308 0
				1.02477 0.0180209 0
				1.03155 0.0063883 0
				0.996799 0.0288199 0
				1.01623 0.0158124 0
				0.94537 0.0379838 0
				0.987512 0.0244511 0
				0.856539 0.0405825 0
				0.929704 0.0331777 0
				0.765418 0.0196931 0
				0.84005 0.0304264 0
				0.88319 -0.0119047 0
				0.8458 -6.05485e-08 0
				0.944486 -0.0195447 0
				0.889632 -0.0204697 0
				0.992276 -0.0120346 0
				0.960831 -0.0195615 0
				1.01103 -0.00567349 0
				0.999877 -0.0116394 0
				1.01782 -0.00110484 0
				1.01514 -0.00543493 0
				1.02053 0.00371691 0
				1.02166 0.000421795 0
				1.0207 0.00915795 0
				1.02417 0.00703482 0
				1.01843 0.0147529 0
				1.02343 0.0142896 0
				1.01376 0.0196378 0
				1.01944 0.0213193 0
				1.0072 0.0229154 0
				1.01251 0.0269217 0
				0.999666 0.0240057 0
				1.00356 0.0300522 0
				0.992172 0.0228095 0
				0.99389 0.0302095 0
				0.985568 0.0196293 0
				0.984778 0.0275078 0
				0.980384 0.0149642 0
				0.977147 0.0224806 0
				0.976872 0.00932915 0
				0.971519 0.0158095 0
				0.975111 0.00316503 0
				0.968109 0.0081366 0
				0.975111 -0.00316503 0
				0.96697 -4.31576e-09 0
				0.976872 -0.00932915 0
				0.968109 -0.0081366 0
				0.980384 -0.0149642 0
				0.971519 -0.0158095 0
				0.985568 -0.0196293 0
				0.977147 -0.0224806 0
				0.992172 -0.0228095 0
				0.984778 -0.0275078 0
				0.999666 -0.0240057 0
				0.99389 -0.0302095 0
				1.0072 -0.0229154 0
				1.00356 -0.0300522 0
				1.01376 -0.0196378 0
				1.01251 -0.0269217 0
				1.01843 -0.0147529 0
				1.01944 -0.0213193 0
				1.0207 -0.00915795 0
				1.02343 -0.0142896 0
				1.02053 -0.00371691 0
				1.02417 -0.00703482 0
				1.01782 0.00110485 0
				1.02166 -0.000421799 0
				1.01103 0.00567349 0
				1.01514 0.00543494 0
				0.992276 0.0120347 0
				0.999877 0.0116394 0
				0.944486 0.0195448 0
				0.960831 0.0195615 0
				0.88319 0.0119046 0
				0.889632 0.0204696 0
				0.920276 -0.00859871 0
				0.930179 2.63144e-08 0
				0.967553 -0.0135157 0
				0.956005 -0.0127719 0
				1.00087 -0.00748551 0
				0.993336 -0.00994097 0
				1.01115 -0.00288505 0
				1.00863 -0.00443804 0
				1.01361 0.000164144 0
				1.01199 -0.00145335 0
				1.01393 0.00316178 0
				1.01246 0.000958254 0
				1.01298 0.00632387 0
				1.01188 0.00347177 0
				1.01083 0.00939087 0
				1.01042 0.0060085 0
				1.00755 0.0119213 0
				1.00807 0.00827058 0
				1.00345 0.013484 0
				1.00498 0.00990613 0
				0.999008 0.0138266 0
				1.00147 0.0106517 0
				0.994749 0.0129428 0
				0.997946 0.0104228 0
				0.991081 0.0110228 0
				0.994766 0.0093104 0
				0.988247 0.00834385 0
				0.992177 0.00750888 0
				0.986348 0.00517888 0
				0.990301 0.00523566 0
				0.985401 0.00175328 0
				0.989176 0.00268181 0
				0.985401 -0.00175328 0
				0.988802 -6.56259e-10 0
				0.986348 -0.00517888 0
				0.989176 -0.00268181 0