<VTKFile type="UnstructuredGrid" version="0.1" byte_order="LittleEndian">
<UnstructuredGrid>
	<Piece NumberOfPoints="288" NumberOfCells="512">
		<CellData Scalars="density" Vectors="velocity">
			<DataArray type="Float64" Name="density" Format="ascii">
				0.948321
				0.948335
				0.945544
				0.947553
				0.937617
				0.944087
				0.922566
				0.935906
				0.900325
				0.921954
				0.873471
				0.903028
				0.847922
				0.882556
				0.832531
				0.866911
				0.835871
				0.863746
				0.860328
				0.877639
				0.900293
				0.906722
				0.947005
				0.944667
				0.992679
				0.984609
				1.03152
				1.02097
				1.0595
				1.04969
				1.0741
				1.06799
				1.0741
				1.07427
				1.0595
				1.06799
				1.03152
				1.04969
				0.992679
				1.02097
				0.947005
				0.984609
				0.900293
				0.944667
				0.860328
				0.906722
				0.835871
				0.877639
				0.832531
				0.863746
				0.847922
				0.866911
				0.873471
				0.882556
				0.900325
				0.903028
				0.922566
				0.921954
				0.937617
				0.935906
				0.945544
				0.944087
				0.948321
				0.947553
				0.961759
				0.961069
				0.963397
				0.961626
				0.963824
				0.961258
				0.960421
				0.956876
				0.952612
				0.947492
				0.941972
				0.934072
				0.931993
				0.919421
				0.92721
				0.908211
				0.931314
				0.905901
				0.944983
				0.91583
				0.965564
				0.936739
				0.988954
				0.963973
				1.01142
				0.99239
				1.03022
				1.01793
				1.0436
				1.03783
				1.05052
				1.05037
				1.05052
				1.05465
				1.0436
				1.05037
				1.03022
				1.03783
				1.01142
				1.01793
				0.988954
				0.99239
				0.965564
				0.963973
				0.944983
				0.936739
				0.931314
				0.91583
				0.92721
				0.905901
				0.931993
				0.908211
				0.941972
				0.919421
				0.952612
				0.934072
				0.960421
				0.947492
				0.963824
				0.956876
				0.963397
				0.961258
				0.961759
				0.961626
				0.969237
				0.970578
				0.972573
				0.973142
				0.974581
				0.977827
				0.972772
				0.979917
				0.967788
				0.978083
				0.961349
				0.973652
				0.955812
				0.968787
				0.953849
				0.96579
				0.957471
				0.966591
				0.966877
				0.972045
				0.980355
				0.98149
				0.995333
				0.99315
				1.00947
				1.00502
				1.02111
				1.01549
				1.02927
				1.02351
				1.03345
				1.0285
				1.03345
				1.03019
				1.02927
				1.0285
				1.02111
				1.02351
				1.00947
				1.01549
				0.995333
				1.00502
				0.980355
				0.99315
				0.966877
				0.98149
				0.957471
				0.972045
				0.953849
				0.966591
				0.955812
				0.96579
				0.961349
				0.968787
				0.967788
				0.973652
				0.972772
				0.978083
				0.974581
				0.979917
				0.972573
				0.977827
				0.969237
				0.973142
				0.977106
				0.97349
				0.983008
				0.976931
				0.988163
				0.98273
				0.989444
				0.985335
				0.988206
				0.984714
				0.986231
				0.982556
				0.984789
				0.980323
				0.984801
				0.979318
				0.986774
				0.980531
				0.990634
				0.984289
				0.995759
				0.990108
				1.00128
				0.996961
				1.00639
				1.00375
				1.01055
				1.00961
				1.01343
				1.01403
				1.0149
				1.01675
				1.0149
				1.01767
				1.01343
				1.01675
				1.01055
				1.01403
				1.00639
				1.00961
				1.00128
				1.00375
				0.995759
				0.996961
				0.990634
				0.990108
				0.986774
				0.984289
				0.984801
				0.980531
				0.984789
				0.979318
				0.986231
				0.980323
				0.988206
				0.982556
				0.989444
				0.984714
				0.988163
				0.985335
				0.983008
				0.98273
				0.977106
				0.976931
				0.979467
				0.981093
				0.985824
				0.984867
				0.990729
				0.990999
				0.992051
				0.993805
				0.991718
				0.99399
				0.991004
				0.993377
				0.990623
				0.992834
				0.991048
				0.992808
				0.992493
				0.993547
				0.994859
				0.995089
				0.997782
				0.997237
				1.0008
				0.999655
				1.00353
				1.00199
				1.0057
				1.00398
				1.00718
				1.00546
				1.00793
				1.00636
				1.00793
				1.00666
				1.00718
				1.00636
				1.0057
				1.00546
				1.00353
				1.00398
				1.0008
				1.00199
				0.997782
				0.999655
				0.994859
				0.997237
				0.992493
				0.995089
				0.991048
				0.993547
				0.990623
				0.992808
				0.991004
				0.992834
				0.991718
				0.993377
				0.992051
				0.99399
				0.990729
				0.993805
				0.985824
				0.990999
				0.979467
				0.984867
				0.987036
				0.983598
				0.99202
				0.987361
				0.995463
				0.992922
				0.996246
				0.995121
				0.996177
				0.995428
				0.996046
				0.995304
				0.996095
				0.995226
				0.996434
				0.995422
				0.997084
				0.996004
				0.998002
				0.996975
				0.999057
				0.998211
				1.00011
				0.999534
				1.00103
				1.00077
				1.00175
				1.0018
				1.00224
				1.00256
				1.00249
				1.00301
				1.00249
				1.00316
				1.00224
				1.00301
				1.00175
				1.00256
				1.00103
				1.0018
				1.00011
				1.00077
				0.999057
				0.999534
				0.998002
				0.998211
				0.997084
				0.996975
				0.996434
				0.996004
				0.996095
				0.995422
				0.996046
				0.995226
				0.996177
				0.995304
				0.996246
				0.995428
				0.995463
				0.995121
				0.99202
				0.992922
				0.987036
				0.987361
				0.989253
				0.990516
				0.993784
				0.992884
				0.996499
				0.996159
				0.997051
				0.997278
				0.997116
				0.997418
				0.997159
				0.997441
				0.997289
				0.997523
				0.997554
				0.99773
				0.99793
				0.998072
				0.99847
				0.998463
				0.999068
				0.998933
				0.999647
				0.99941
				1.00015
				0.99984
				1.00053
				1.00019
				1.00079
				1.00044
				1.00092
				1.00059
				1.00092
				1.00064
				1.00079
				1.00059
				1.00053
				1.00044
				1.00015
				1.00019
				0.999647
				0.99984
				0.999068
				0.99941
				0.99847
				0.998933
				0.99793
				0.998463
				0.997554
				0.998072
				0.997289
				0.99773
				0.997159
				0.997523
				0.997116
				0.997441
				0.997051
				0.997418
				0.996499
				0.997278
				0.993784
				0.996159
				0.989253
				0.992884
				0.994893
				0.992361
				0.997031
				0.994559
				0.998169
				0.997346
				0.998269
				0.998096
				0.998194
				0.998133
				0.998139
				0.998118
				0.998137
				0.998151
				0.998215
				0.998267
				0.998986
				0.998358
				0.999278
				0.998802
				0.999518
				0.999172
				0.999703
				0.999484
				0.999839
				0.999735
				0.999932
				0.999923
				0.999989
				1.00005
				1.00002
				1.00013
				1.00002
				1.00015
				0.999989
				1.00013
				0.999932
				1.00005
				0.999839
				0.999923
				0.999703
				0.999735
				0.999518
				0.999484
				0.999278
				0.999172
				0.998986
				0.998802
				0.998215
				0.998358
				0.998137
				0.998267
				0.998139
				0.998151
				0.998194
				0.998118
				0.998269
				0.998133
				0.998169
				0.998096
				0.997031
				0.997346
				0.994893
				0.994559
			</DataArray>
			<DataArray type="Float64" Name="mach-number" Format="ascii">
				0.0331525
				0.04473
				0.0908745
				0.0770866
				0.166536
				0.142367
				0.256282
				0.22365
				0.354022
				0.314207
				0.451436
				0.406568
				0.537112
				0.491346
				0.596383
				0.556885
				0.615614
				0.59109
				0.591555
				0.587286
				0.533406
				0.548754
				0.453683
				0.484948
				0.361694
				0.405176
				0.263119
				0.316439
				0.161706
				0.224517
				0.0639546
				0.138453
				0.0639547
				0.0924121
				0.161707
				0.138453
				0.26312
				0.224518
				0.361694
				0.316439
				0.453683
				0.405176
				0.533406
				0.484948
				0.591555
				0.548754
				0.615614
				0.587286
				0.596383
				0.59109
				0.537112
				0.556885
				0.451436
				0.491346
				0.354022
				0.406568
				0.256282
				0.314207
				0.166536
				0.22365
				0.0908744
				0.142367
				0.0331524
				0.0770865
				0.123396
				0.0844317
				0.17331
				0.113892
				0.242355
				0.178593
				0.314004
				0.255207
				0.381612
				0.3336
				0.440651
				0.407323
				0.486503
				0.470398
				0.513748
				0.516138
				0.517663
				0.537379
				0.497521
				0.529856
				0.457641
				0.495737
				0.404816
				0.442029
				0.34588
				0.376473
				0.287493
				0.30584
				0.237638
				0.237083
				0.207315
				0.181102
				0.207316
				0.157606
				0.237638
				0.181102
				0.287493
				0.237083
				0.34588
				0.30584
				0.404816
				0.376473
				0.457641
				0.442029
				0.497521
				0.495737
				0.517663
				0.529856
				0.513748
				0.537379
				0.486503
				0.516138
				0.440651
				0.470397
				0.381612
				0.407323
				0.314004
				0.3336
				0.242355
				0.255207
				0.17331
				0.178593
				0.123396
				0.113892
				0.168741
				0.189131
				0.216509
				0.216031
				0.279285
				0.27229
				0.337436
				0.327517
				0.386238
				0.372961
				0.424865
				0.408615
				0.452304
				0.434954
				0.466338
				0.451056
				0.464734
				0.455051
				0.447511
				0.445984
				0.417764
				0.425333
				0.38044
				0.396776
				0.340861
				0.364882
				0.304187
				0.334118
				0.275489
				0.308504
				0.259538
				0.291465
				0.259538
				0.285475
				0.275489
				0.291465
				0.304187
				0.308504
				0.340861
				0.334118
				0.38044
				0.364882
				0.417764
				0.396776
				0.447511
				0.425333
				0.464734
				0.445984
				0.466338
				0.455051
				0.452304
				0.451056
				0.424865
				0.434954
				0.386238
				0.408615
				0.337436
				0.372961
				0.279285
				0.327517
				0.216509
				0.27229
				0.168741
				0.216031
				0.257992
				0.230494
				0.298939
				0.255738
				0.342974
				0.306043
				0.373519
				0.34951
				0.393427
				0.380049
				0.406623
				0.401109
				0.414465
				0.415107
				0.416714
				0.422383
				0.412945
				0.422273
				0.403612
				0.414595
				0.390302
				0.400546
				0.375261
				0.382543
				0.36072
				0.363458
				0.348469
				0.345923
				0.339724
				0.332001
				0.335194
				0.323106
				0.335194
				0.320053
				0.339724
				0.323106
				0.348469
				0.332001
				0.36072
				0.345923
				0.375261
				0.363458
				0.390302
				0.382543
				0.403612
				0.400546
				0.412945
				0.414595
				0.416714
				0.422273
				0.414465
				0.422383
				0.406623
				0.415107
				0.393427
				0.401109
				0.373519
				0.380049
				0.342974
				0.34951
				0.298939
				0.306043
				0.257992
				0.255738
				0.288985
				0.297325
				0.325079
				0.317983
				0.360006
				0.353524
				0.380112
				0.376307
				0.391039
				0.387596
				0.397347
				0.393644
				0.400453
				0.396891
				0.40042
				0.397759
				0.397167
				0.396148
				0.391084
				0.39217
				0.383142
				0.386399
				0.374603
				0.379762
				0.366645
				0.373235
				0.360136
				0.367596
				0.355596
				0.363341
				0.353279
				0.360723
				0.353279
				0.359842
				0.355596
				0.360723
				0.360136
				0.363341
				0.366645
				0.367596
				0.374603
				0.373235
				0.383142
				0.379762
				0.391084
				0.386399
				0.397167
				0.39217
				0.40042
				0.396148
				0.400453
				0.397759
				0.397347
				0.396891
				0.391039
				0.393644
				0.380112
				0.387596
				0.360006
				0.376307
				0.325079
				0.353524
				0.288985
				0.317983
				0.333408
				0.319205
				0.358426
				0.336855
				0.377799
				0.365406
				0.385376
				0.380973
				0.388161
				0.387054
				0.389319
				0.389699
				0.389479
				0.390784
				0.388671
				0.390606
				0.386911
				0.389147
				0.384393
				0.38652
				0.381467
				0.383068
				0.378535
				0.379299
				0.375937
				0.375714
				0.37389
				0.372692
				0.372499
				0.370453
				0.371801
				0.369092
				0.371801
				0.368637
				0.372499
				0.369092
				0.37389
				0.370453
				0.375937
				0.372692
				0.378535
				0.375714
				0.381467
				0.379299
				0.384393
				0.383068
				0.386911
				0.38652
				0.388671
				0.389147
				0.389479
				0.390606
				0.389319
				0.390784
				0.388161
				0.389699
				0.385376
				0.387054
				0.377799
				0.380973
				0.358426
				0.365406
				0.333408
				0.336854
				0.346664
				0.348832
				0.366773
				0.360581
				0.380842
				0.377339
				0.385208
				0.384083
				0.386367
				0.385658
				0.386653
				0.386028
				0.38643
				0.385948
				0.385698
				0.385477
				0.384436
				0.384607
				0.382836
				0.383368
				0.381087
				0.381975
				0.379405
				0.380581
				0.377956
				0.379328
				0.376839
				0.378312
				0.376092
				0.377579
				0.375721
				0.37714
				0.375721
				0.376994
				0.376092
				0.37714
				0.376839
				0.377579
				0.377956
				0.378312
				0.379405
				0.379328
				0.381087
				0.380581
				0.382836
				0.381975
				0.384436
				0.383368
				0.385698
				0.384607
				0.38643
				0.385477
				0.386653
				0.385948
				0.386367
				0.386028
				0.385208
				0.385658
				0.380842
				0.384083
				0.366773
				0.377339
				0.346664
				0.360581
				0.361804
				0.356603
				0.375012
				0.366212
				0.382753
				0.379258
				0.384189
				0.383689
				0.384234
				0.384335
				0.384104
				0.384359
				0.383881
				0.384202
				0.383553
				0.383886
				0.382466
				0.383508
				0.381571
				0.382382
				0.380799
				0.381353
				0.380158
				0.380458
				0.379658
				0.379727
				0.379298
				0.379172
				0.379067
				0.37879
				0.378955
				0.378569
				0.378955
				0.378496
				0.379067
				0.378569
				0.379298
				0.37879
				0.379658
				0.379172
				0.380158
				0.379727
				0.380799
				0.380458
				0.381571
				0.381353
				0.382466
				0.382382
				0.383553
				0.383508
				0.383881
				0.383886
				0.384104
				0.384202
				0.384234
				0.384359
				0.384189
				0.384335
				0.382753
				0.383689
				0.375012
				0.379258
				0.361804
				0.366212
			</DataArray>
			<DataArray type="Float64" Name="pressure" Format="ascii">
				4.84691
				4.84829
				4.81329
				4.83365
				4.73915
				4.78867
				4.61658
				4.70861
				4.44663
				4.58952
				4.24842
				4.43893
				4.06281
				4.28227
				3.94794
				4.16294
				3.9586
				4.13057
				4.11062
				4.21432
				4.37011
				4.40284
				4.68196
				4.65598
				4.99426
				4.92827
				5.2653
				5.18058
				5.46368
				5.38253
				5.56822
				5.5124
				5.56822
				5.55714
				5.46368
				5.5124
				5.2653
				5.38253
				4.99426
				5.18058
				4.68196
				4.92827
				4.37011
				4.65598
				4.11062
				4.40284
				3.9586
				4.21432
				3.94794
				4.13057
				4.06281
				4.16294
				4.24842
				4.28227
				4.44663
				4.43893
				4.61658
				4.58952
				4.73915
				4.70861
				4.81329
				4.78867
				4.84691
				4.83365
				4.91915
				4.92334
				4.90265
				4.91361
				4.86787
				4.88023
				4.81006
				4.8172
				4.72952
				4.72437
				4.63763
				4.61031
				4.55678
				4.49445
				4.51554
				4.40716
				4.53723
				4.38325
				4.62587
				4.4439
				4.76377
				4.58104
				4.92322
				4.76435
				5.0783
				4.95922
				5.20938
				5.13706
				5.30325
				5.27728
				5.35202
				5.36642
				5.35202
				5.39693
				5.30325
				5.36642
				5.20938
				5.27728
				5.0783
				5.13706
				4.92322
				4.95922
				4.76377
				4.76435
				4.62587
				4.58104
				4.53723
				4.4439
				4.51554
				4.38325
				4.55678
				4.40716
				4.63763
				4.49445
				4.72952
				4.61031
				4.81006
				4.72437
				4.86787
				4.8172
				4.90265
				4.88023
				4.91915
				4.91361
				4.94765
				4.95264
				4.93411
				4.94773
				4.90356
				4.93297
				4.85722
				4.90624
				4.80041
				4.86669
				4.74186
				4.81998
				4.69477
				4.77676
				4.67523
				4.75004
				4.6957
				4.75149
				4.75714
				4.78624
				4.84789
				4.84951
				4.95036
				4.929
				5.04817
				5.01074
				5.1294
				5.08336
				5.18671
				5.1393
				5.21617
				5.17422
				5.21617
				5.18605
				5.18671
				5.17422
				5.1294
				5.1393
				5.04817
				5.08336
				4.95036
				5.01074
				4.84789
				4.929
				4.75714
				4.84951
				4.6957
				4.78624
				4.67523
				4.75149
				4.69477
				4.75004
				4.74186
				4.77676
				4.80041
				4.81998
				4.85722
				4.86669
				4.90356
				4.90624
				4.93411
				4.93297
				4.94765
				4.94773
				4.94998
				4.94443
				4.94608
				4.94205
				4.93692
				4.93212
				4.92079
				4.91358
				4.9002
				4.88955
				4.88045
				4.86414
				4.86716
				4.84286
				4.86534
				4.83244
				4.87788
				4.83863
				4.90399
				4.86322
				4.93921
				4.90267
				4.97742
				4.9498
				5.013
				4.99686
				5.04199
				5.03778
				5.06214
				5.06876
				5.0724
				5.08786
				5.0724
				5.09429
				5.06214
				5.08786
				5.04199
				5.06876
				5.013
				5.03778
				4.97742
				4.99686
				4.93921
				4.9498
				4.90399
				4.90267
				4.87788
				4.86322
				4.86534
				4.83863
				4.86716
				4.83244
				4.88045
				4.84286
				4.9002
				4.86414
				4.92079
				4.88955
				4.93692
				4.91358
				4.94608
				4.93212
				4.94998
				4.94205
				4.93677
				4.94378
				4.93705
				4.94374
				4.93309
				4.94259
				4.92522
				4.93816
				4.91597
				4.93071
				4.90786
				4.92307
				4.90364
				4.91781
				4.90577
				4.91694
				4.91539
				4.92177
				4.93165
				4.93239
				4.95195
				4.94734
				4.97306
				4.96423
				4.99217
				4.98058
				5.00743
				4.99452
				5.01788
				5.00492
				5.02316
				5.01127
				5.02316
				5.0134
				5.01788
				5.01127
				5.00743
				5.00492
				4.99217
				4.99452
				4.97306
				4.98058
				4.95195
				4.96423
				4.93165
				4.94734
				4.91539
				4.93239
				4.90577
				4.92177
				4.90364
				4.91694
				4.90786
				4.91781
				4.91597
				4.92307
				4.92522
				4.93071
				4.93309
				4.93816
				4.93705
				4.94259
				4.93677
				4.94374
				4.9432
				4.93554
				4.944
				4.93788
				4.94396
				4.94023
				4.94203
				4.93917
				4.93952
				4.9365
				4.93786
				4.93396
				4.93792
				4.93274
				4.94025
				4.93385
				4.94492
				4.9379
				4.95152
				4.94477
				4.95912
				4.95357
				4.9667
				4.96302
				4.97339
				4.97187
				4.97864
				4.97926
				4.98221
				4.98469
				4.984
				4.98797
				4.984
				4.98906
				4.98221
				4.98797
				4.97864
				4.98469
				4.97339
				4.97926
				4.9667
				4.97187
				4.95912
				4.96302
				4.95152
				4.95357
				4.94492
				4.94477
				4.94025
				4.9379
				4.93792
				4.93385
				4.93786
				4.93274
				4.93952
				4.93396
				4.94203
				4.9365
				4.94396
				4.93917
				4.944
				4.94023
				4.9432
				4.93788
				4.94007
				4.94657
				4.94384
				4.94671
				4.94535
				4.94697
				4.94473
				4.94662
				4.94394
				4.94576
				4.94369
				4.9452
				4.9444
				4.94541
				4.94635
				4.94672
				4.94949
				4.94923
				4.95376
				4.95262
				4.95847
				4.95656
				4.96304
				4.96057
				4.96699
				4.96421
				4.97005
				4.96719
				4.97211
				4.96935
				4.97313
				4.97065
				4.97313
				4.97109
				4.97211
				4.97065
				4.97005
				4.96935
				4.96699
				4.96719
				4.96304
				4.96421
				4.95847
				4.96057
				4.95376
				4.95656
				4.94949
				4.95262
				4.94635
				4.94923
				4.9444
				4.94672
				4.94369
				4.94541
				4.94394
				4.9452
				4.94473
				4.94576
				4.94535
				4.94662
				4.94384
				4.94697
				4.94007
				4.94671
				4.95363
				4.9452
				4.95198
				4.9474
				4.9503
				4.94963
				4.94882
				4.94924
				4.94761
				4.94816
				4.94678
				4.94734
				4.94635
				4.94702
				4.94643
				4.94732
				4.95057
				4.94752
				4.95443
				4.95206
				4.95791
				4.95604
				4.96087
				4.95957
				4.96325
				4.96252
				4.96501
				4.96481
				4.96617
				4.96643
				4.96674
				4.96738
				4.96674
				4.9677
				4.96617
				4.96738
				4.96501
				4.96643
				4.96325
				4.96481
				4.96087
				4.96252
				4.95791
				4.95957
				4.95443
				4.95604
				4.95057
				4.95206
				4.94643
				4.94752
				4.94635
				4.94732
				4.94678
				4.94702
				4.94761
				4.94734
				4.94882
				4.94816
				4.9503
				4.94924
				4.95198
				4.94963
				4.95363
				4.9474
			</DataArray>
			<DataArray type="Float64" Name="velocity" NumberOfComponents="3" Format="ascii">
				0.0589567 -0.0662464 0
				0.119668 -1.04836e-07 0
				0.129385 -0.205214 0
				0.163442 -0.125399 0
				0.275797 -0.346684 0
				0.286004 -0.249262 0
				0.497439 -0.461183 0
				0.473695 -0.357666 0
				0.777647 -0.51173 0
				0.712939 -0.423986 0
				1.08055 -0.469165 0
				0.979617 -0.421784 0
				1.35335 -0.321934 0
				1.23609 -0.334735 0
				1.53431 -0.0846484 0
				1.43467 -0.163196 0
				1.57287 0.197029 0
				1.5279 0.0684885 0
				1.45972 0.458265 0
				1.49055 0.311344 0
				1.23229 0.644207 0
				1.33671 0.51022 0
				0.946659 0.726972 0
				1.10855 0.62759 0
				0.654864 0.70186 0
				0.853546 0.649501 0
				0.398788 0.579405 0
				0.612742 0.57955 0
				0.210102 0.380318 0
				0.418047 0.432559 0
				0.110295 0.132365 0
				0.292164 0.230561 0
				0.110295 -0.132366 0
				0.248692 -1.25699e-07 0
				0.210103 -0.380318 0
				0.292164 -0.230561 0
				0.398789 -0.579406 0
				0.418048 -0.432559 0
				0.654864 -0.701859 0
				0.612742 -0.579551 0
				0.946659 -0.726972 0
				0.853545 -0.649501 0
				1.23229 -0.644207 0
				1.10855 -0.62759 0
				1.45972 -0.458265 0
				1.33671 -0.51022 0
				1.57287 -0.197029 0
				1.49055 -0.311344 0
				1.53431 0.0846484 0
				1.5279 -0.0684885 0
				1.35335 0.321935 0
				1.43467 0.163196 0
				1.08055 0.469165 0
				1.23609 0.334735 0
				0.777647 0.51173 0
				0.979617 0.421784 0
				0.497439 0.461183 0
				0.712939 0.423986 0
				0.275797 0.346684 0
				0.473695 0.357666 0
				0.129385 0.205214 0
				0.286004 0.249262 0
				0.0589567 0.0662461 0
				0.163442 0.125399 0
				0.325383 -0.0562019 0
				0.226111 -1.23309e-07 0
				0.435756 -0.155279 0
				0.280671 -0.118387 0
				0.603397 -0.226324 0
				0.421144 -0.22213 0
				0.7886 -0.263517 0
				0.608793 -0.297342 0
				0.971939 -0.259907 0
				0.817546 -0.329374 0
				1.13751 -0.21081 0
				1.02573 -0.30714 0
				1.26755 -0.115828 0
				1.20964 -0.226035 0
				1.34136 0.016928 0
				1.34228 -0.0898701 0
				1.34176 0.165646 0
				1.39613 0.0836107 0
				1.26775 0.298626 0
				1.35624 0.260403 0
				1.13837 0.388209 0
				1.23333 0.401842 0
				0.982474 0.420569 0
				1.05834 0.48155 0
				0.827525 0.39515 0
				0.866526 0.490622 0
				0.694819 0.319902 0
				0.687925 0.433156 0
				0.599008 0.207249 0
				0.545073 0.320994 0
				0.549015 0.0716526 0
				0.453391 0.170383 0
				0.549015 -0.0716527 0
				0.421848 -4.76669e-08 0
				0.599008 -0.207249 0
				0.453391 -0.170383 0
				0.69482 -0.319902 0
				0.545073 -0.320994 0
				0.827525 -0.39515 0
				0.687925 -0.433156 0
				0.982474 -0.420569 0
				0.866527 -0.490622 0
				1.13837 -0.388209 0
				1.05834 -0.48155 0
				1.26775 -0.298626 0
				1.23333 -0.401842 0
				1.34176 -0.165646 0
				1.35624 -0.260403 0
				1.34136 -0.016928 0
				1.39613 -0.0836105 0
				1.26755 0.115828 0
				1.34228 0.0898701 0
				1.13751 0.21081 0
				1.20964 0.226035 0
				0.971939 0.259907 0
				1.02573 0.30714 0
				0.7886 0.263517 0
				0.817546 0.329374 0
				0.603397 0.226324 0
				0.608793 0.297342 0
				0.435756 0.155279 0
				0.421144 0.22213 0
				0.325382 0.0562015 0
				0.280671 0.118386 0
				0.448729 -0.0461462 0
				0.505511 1.20358e-07 0
				0.563952 -0.122063 0
				0.571023 -0.0782691 0
				0.722484 -0.165688 0
				0.712882 -0.124287 0
				0.874132 -0.178456 0
				0.855724 -0.140101 0
				1.00472 -0.162739 0
				0.975272 -0.133502 0
				1.11002 -0.119881 0
				1.07043 -0.10657 0
				1.18497 -0.0515039 0
				1.14121 -0.0596435 0
				1.22104 0.0366695 0
				1.18358 0.00512332 0
				1.21067 0.131101 0
				1.19108 0.0799072 0
				1.15507 0.212801 0
				1.16118 0.150939 0
				1.0667 0.265332 0
				1.09998 0.203576 0
				0.963827 0.280755 0
				1.02064 0.228383 0
				0.863738 0.259607 0
				0.937817 0.223171 0
				0.779465 0.207782 0
				0.863584 0.191258 0
				0.719432 0.133591 0
				0.806097 0.138781 0
				0.688382 0.0460093 0
				0.77009 0.0727264 0
				0.688382 -0.0460093 0
				0.757865 -3.14982e-08 0
				0.719432 -0.133591 0
				0.77009 -0.0727264 0
				0.779465 -0.207782 0
				0.806097 -0.138781 0
				0.863738 -0.259607 0
				0.863584 -0.191258 0
				0.963827 -0.280755 0
				0.937817 -0.223171 0
				1.0667 -0.265332 0
				1.02064 -0.228383 0
				1.15507 -0.212801 0
				1.09998 -0.203576 0
				1.21067 -0.1311 0
				1.16118 -0.150939 0
				1.22104 -0.0366695 0
				1.19108 -0.0799072 0
				1.18497 0.0515039 0
				1.18358 -0.00512332 0
				1.11002 0.119882 0
				1.14121 0.0596434 0
				1.00472 0.162739 0
				1.07043 0.10657 0
				0.874132 0.178456 0
				0.975272 0.133502 0
				0.722484 0.165688 0
				0.855724 0.140101 0
				0.563952 0.122063 0
				0.712882 0.124287 0
				0.448729 0.0461463 0
				0.571023 0.078269 0
				0.686497 -0.0280458 0
				0.614634 -2.20732e-08 0
				0.790957 -0.0623678 0
				0.678249 -0.0562949 0
				0.904607 -0.0667433 0
				0.807041 -0.0823805 0
				0.983851 -0.0586218 0
				0.919652 -0.0840658 0
				1.03566 -0.044114 0
				0.999401 -0.0726156 0
				1.07003 -0.0228802 0
				1.05472 -0.0512387 0
				1.09022 0.00527883 0
				1.09148 -0.0202469 0
				1.09527 0.0381247 0
				1.11001 0.0191029 0
				1.08404 0.0705876 0
				1.10816 0.0622481 0
				1.05816 0.0964079 0
				1.08566 0.101598 0
				1.02255 0.110692 0
				1.04664 0.129385 0
				0.983667 0.111525 0
				0.99868 0.140783 0
				0.947332 0.099807 0
				0.94998 0.134972 0
				0.917662 0.0780993 0
				0.907136 0.114189 0
				0.897014 0.0494849 0
				0.87442 0.0821428 0
				0.886494 0.0169197 0
				0.854129 0.0428273 0
				0.886494 -0.0169197 0
				0.847276 -3.33533e-09 0
				0.897014 -0.0494849 0
				0.854129 -0.0428273 0
				0.917662 -0.0780993 0
				0.87442 -0.0821428 0
				0.947332 -0.099807 0
				0.907136 -0.114189 0
				0.983667 -0.111525 0
				0.94998 -0.134972 0
				1.02255 -0.110692 0
				0.99868 -0.140783 0
				1.05816 -0.0964079 0
				1.04664 -0.129385 0
				1.08404 -0.0705876 0
				1.08566 -0.101598 0
				1.09527 -0.0381246 0
				1.10816 -0.0622481 0
				1.09022 -0.00527884 0
				1.11001 -0.0191029 0
				1.07003 0.0228802 0
				1.09148 0.0202469 0
				1.03566 0.044114 0
				1.05472 0.0512387 0
				0.983851 0.0586218 0
				0.999401 0.0726156 0
				0.904607 0.0667433 0
				0.919652 0.0840658 0
				0.790957 0.0623678 0
				0.807041 0.0823806 0
				0.686497 0.0280457 0
				0.678249 0.0562948 0
				0.767408 -0.0194913 0
				0.789715 1.24826e-08 0
				0.859844 -0.0399243 0
				0.842427 -0.0299878 0
				0.949788 -0.0369665 0
				0.933612 -0.032188 0
				1.00174 -0.0276938 0
				0.992246 -0.0231558 0
				1.03 -0.016951 0
				1.02132 -0.0144846 0
				1.04626 -0.00377176 0
				1.03687 -0.00516095 0
				1.05412 0.0123248 0
				1.04514 0.00622105 0
				1.05368 0.0301607 0
				1.04719 0.0194508 0
				1.04475 0.0470457 0
				1.04273 0.0329065 0
				1.02853 0.0598165 0
				1.03214 0.0441857 0
				1.00777 0.0660913 0
				1.01704 0.0511226 0
				0.985891 0.0650538 0
				0.999949 0.0525623 0
				0.965885 0.0573408 0
				0.983389 0.0485738 0
				0.949795 0.0444194 0
				0.969279 0.0400873 0
				0.938716 0.0279682 0
				0.95875 0.0283691 0
				0.933109 0.00953381 0
				0.952321 0.0146523 0
				0.933109 -0.00953383 0
				0.950168 -5.86653e-09 0
				0.938716 -0.0279682 0
				0.952321 -0.0146523 0
				0.949795 -0.0444194 0
				0.95875 -0.0283691 0
				0.965885 -0.0573408 0
				0.969279 -0.0400873 0
				0.985891 -0.0650538 0
				0.983389 -0.0485738 0
				1.00777 -0.0660913 0
				0.999949 -0.0525623 0
				1.02853 -0.0598165 0
				1.01704 -0.0511226 0
				1.04475 -0.0470457 0
				1.03214 -0.0441857 0
				1.05368 -0.0301607 0
				1.04273 -0.0329065 0
				1.05412 -0.0123248 0
				1.04719 -0.0194508 0
				1.04626 0.00377175 0
				1.04514 -0.00622105 0
				1.03 0.016951 0
				1.03687 0.00516094 0
				1.00174 0.0276938 0
				1.02132 0.0144846 0
				0.949788 0.0369665 0
				0.992246 0.0231558 0
				0.859843 0.0399243 0
				0.933612 0.032188 0
				0.767408 0.0194913 0
				0.842427 0.0299878 0
				0.882759 -0.0112965 0
				0.846042 -6.19349e-08 0
				0.9466 -0.0176846 0
				0.891122 -0.0192554 0
				0.996162 -0.00941717 0
				0.964239 -0.017484 0
				1.01559 -0.00295956 0
				1.00422 -0.00927753 0
				1.0227 0.00137699 0
				1.01985 -0.00319055 0
				1.02563 0.00579859 0
				1.02663 0.00234841 0
				1.026 0.0107767 0
				1.02936 0.00857295 0
				1.02387 0.0159513 0
				1.02883 0.0154764 0
				1.0193 0.0205099 0
				1.02498 0.0222405 0
				1.01281 0.0235031 0
				1.01814 0.0276133 0
				1.00531 0.024376 0
				1.00923 0.0305592 0
				0.997852 0.0230182 0
				0.999578 0.0305629 0
				0.99128 0.019727 0
				0.990476 0.0277356 0
				0.986127 0.0149963 0
				0.982859 0.0226125 0
				0.98264 0.00933234 0
				0.977247 0.0158757 0
				0.980893 0.00316331 0
				0.97385 0.00816243 0
				0.980893 -0.00316332 0
				0.972717 -4.09933e-09 0
				0.98264 -0.00933234 0
				0.97385 -0.00816243 0
				0.986127 -0.0149963 0
				0.977247 -0.0158757 0
				0.99128 -0.019727 0
				0.982859 -0.0226125 0
				0.997852 -0.0230182 0
				0.990476 -0.0277356 0
				1.00531 -0.024376 0
				0.999578 -0.0305629 0
				1.01281 -0.0235031 0
				1.00923 -0.0305592 0
				1.0193 -0.0205099 0
				1.01814 -0.0276133 0
				1.02387 -0.0159512 0
				1.02498 -0.0222405 0
				1.026 -0.0107767 0
				1.02883 -0.0154764 0
				1.02563 -0.00579859 0
				1.02936 -0.00857295 0
				1.0227 -0.00137697 0
				1.02663 -0.00234841 0
				1.01559 0.00295957 0
				1.01985 0.00319057 0
				0.996162 0.00941718 0
				1.00422 0.00927752 0
				0.9466 0.0176846 0
				0.964239 0.017484 0
				0.882759 0.0112963 0
				0.891122 0.0192553 0
				0.916586 -0.00688667 0
				0.922362 2.93193e-08 0
				0.967893 -0.00924249 0
				0.952257 -0.00943239 0
				1.00385 -0.00246341 0
				0.99494 -0.00424316 0
				1.01501 0.00177938 0
				1.01213 0.00149469 0
				1.01794 0.00414981 0
				1.01611 0.00379326 0
				1.01864 0.00632113 0
				1.01701 0.00533705 0
				1.01804 0.00858574 0
				1.01677 0.00686067 0
				1.01616 0.0108595 0
				1.01555 0.00833147 0
				1.01294 0.0128312 0
				1.01333 0.00960192 0
				1.00887 0.0139763 0
				1.0102 0.0105984 0
				1.00444 0.0140365 0
				1.00669 0.0108958 0
				1.00019 0.0129686 0
				1.00319 0.010394 0
				0.996538 0.0109447 0
				1.00005 0.00913748 0
				0.993733 0.00823081 0
				0.99751 0.00729092 0
				0.991863 0.00508646 0
				0.995682 0.00504758 0
				0.990934 0.00171818 0
				0.994591 0.00257473 0
				0.990934 -0.00171818 0