<VTKFile type="UnstructuredGrid" version="0.1" byte_order="LittleEndian">
<UnstructuredGrid>
	<Piece NumberOfPoints="288" NumberOfCells="512">
		<PointData Scalars="density" Vectors="velocity">
			<DataArray type="Float64" Name="density" Format="ascii">
				0.263677
				0.261703
				0.256356
				0.247672
				0.235967
				0.222522
				0.209295
				0.199114
				0.195546
				0.200228
				0.211065
				0.224729
				0.238652
				0.251071
				0.260759
				0.266889
				0.268985
				0.266889
				0.260759
				0.251071
				0.238652
				0.224729
				0.211066
				0.200229
				0.195546
				0.199114
				0.209296
				0.222523
				0.235967
				0.247672
				0.256356
				0.261703
				0.261885
				0.259354
				0.254705
				0.247803
				0.239232
				0.230034
				0.221826
				0.216873
				0.217154
				0.222508
				0.230928
				0.240329
				0.249216
				0.2566
				0.261843
				0.264556
				0.264556
				0.261843
				0.2566
				0.249216
				0.240329
				0.230929
				0.222509
				0.217155
				0.216873
				0.221827
				0.230035
				0.239232
				0.247803
				0.254705
				0.259354
				0.261885
				0.257879
				0.257207
				0.255421
				0.252444
				0.248445
				0.243861
				0.239367
				0.235952
				0.234682
				0.236048
				0.239558
				0.244174
				0.248919
				0.253107
				0.256315
				0.258313
				0.25899
				0.258313
				0.256315
				0.253107
				0.248919
				0.244174
				0.239558
				0.236048
				0.234682
				0.235952
				0.239367
				0.243861
				0.248445
				0.252444
				0.255421
				0.257207
				0.253492
				0.253119
				0.252176
				0.250661
				0.248785
				0.246803
				0.245094
				0.244099
				0.244132
				0.245196
				0.24698
				0.249047
				0.251018
				0.252639
				0.253769
				0.254345
				0.254345
				0.253769
				0.252639
				0.251018
				0.249047
				0.24698
				0.245196
				0.244132
				0.244099
				0.245094
				0.246803
				0.248785
				0.250661
				0.252176
				0.253119
				0.253492
				0.251106
				0.251196
				0.251111
				0.250652
				0.249994
				0.249243
				0.248531
				0.248019
				0.247848
				0.248072
				0.248631
				0.249382
				0.250168
				0.250864
				0.251393
				0.25172
				0.25183
				0.25172
				0.251393
				0.250864
				0.250168
				0.249383
				0.248631
				0.248072
				0.247848
				0.248019
				0.248531
				0.249243
				0.249994
				0.250652
				0.251111
				0.251196
				0.2502
				0.250401
				0.250331
				0.250122
				0.249872
				0.249615
				0.249405
				0.249292
				0.24931
				0.249458
				0.249699
				0.249978
				0.250244
				0.250463
				0.250615
				0.250692
				0.250692
				0.250615
				0.250463
				0.250244
				0.249978
				0.249699
				0.249459
				0.24931
				0.249292
				0.249405
				0.249615
				0.249872
				0.250122
				0.250331
				0.250401
				0.2502
				0.249887
				0.250044
				0.250134
				0.250069
				0.249994
				0.249912
				0.249838
				0.249788
				0.249778
				0.249811
				0.249881
				0.249971
				0.250065
				0.250148
				0.25021
				0.250249
				0.250261
				0.250249
				0.25021
				0.250148
				0.250065
				0.249971
				0.249881
				0.249811
				0.249778
				0.249788
				0.249838
				0.249912
				0.249994
				0.250069
				0.250134
				0.250044
				0.249898
				0.250025
				0.250022
				0.249996
				0.249973
				0.249951
				0.249935
				0.249932
				0.249944
				0.24997
				0.250005
				0.250042
				0.250076
				0.250103
				0.250122
				0.250131
				0.250131
				0.250122
				0.250103
				0.250076
				0.250042
				0.250005
				0.24997
				0.249944
				0.249932
				0.249935
				0.249951
				0.249973
				0.249996
				0.250022
				0.250025
				0.249898
				0.24993
				0.24998
				0.250008
				0.249998
				0.24999
				0.249982
				0.249977
				0.249976
				0.249981
				0.249991
				0.250005
				0.250021
				0.250035
				0.250048
				0.250057
				0.250062
				0.250064
				0.250062
				0.250057
				0.250048
				0.250035
				0.250021
				0.250005
				0.249991
				0.249981
				0.249976
				0.249977
				0.249982
				0.24999
				0.249998
				0.250008
				0.24998
			</DataArray>
			<DataArray type="Float64" Name="mach-number" Format="ascii">
				0.0219953
				0.108967
				0.224455
				0.347642
				0.471945
				0.591574
				0.698356
				0.777567
				0.806637
				0.774603
				0.697124
				0.595523
				0.482616
				0.364653
				0.244681
				0.124783
				0.0274413
				0.124781
				0.244679
				0.364651
				0.482614
				0.595521
				0.697121
				0.774599
				0.806633
				0.777563
				0.698352
				0.591571
				0.471942
				0.34764
				0.224453
				0.108965
				0.151098
				0.213274
				0.295164
				0.381594
				0.467187
				0.546528
				0.611553
				0.649971
				0.650115
				0.612437
				0.548377
				0.469659
				0.384473
				0.299147
				0.221787
				0.169354
				0.169354
				0.221786
				0.299146
				0.384472
				0.469657
				0.548375
				0.612434
				0.650112
				0.649968
				0.61155
				0.546526
				0.467185
				0.381593
				0.295162
				0.213273
				0.151097
				0.242472
				0.263405
				0.302242
				0.343486
				0.388407
				0.434335
				0.475952
				0.506142
				0.517643
				0.507037
				0.477307
				0.435278
				0.388014
				0.341659
				0.301896
				0.274492
				0.264612
				0.274492
				0.301895
				0.341658
				0.388013
				0.435276
				0.477305
				0.507035
				0.517641
				0.506141
				0.475951
				0.434334
				0.388406
				0.343485
				0.302241
				0.263404
				0.314908
				0.333908
				0.350908
				0.369286
				0.390443
				0.411513
				0.428822
				0.43863
				0.438441
				0.428286
				0.410696
				0.389416
				0.368108
				0.349718
				0.336353
				0.329348
				0.329348
				0.336353
				0.349717
				0.368107
				0.389415
				0.410695
				0.428285
				0.43844
				0.438628
				0.428821
				0.411512
				0.390442
				0.369286
				0.350908
				0.333907
				0.314908
				0.34754
				0.35572
				0.365293
				0.371922
				0.379974
				0.388472
				0.3961
				0.401397
				0.4031
				0.40073
				0.394871
				0.386908
				0.378436
				0.370797
				0.364886
				0.361196
				0.359946
				0.361196
				0.364886
				0.370797
				0.378436
				0.386907
				0.394871
				0.400729
				0.4031
				0.401396
				0.3961
				0.388471
				0.379974
				0.371922
				0.365293
				0.35572
				0.366201
				0.37343
				0.376682
				0.379267
				0.382128
				0.384862
				0.38706
				0.388214
				0.387982
				0.386385
				0.383801
				0.380797
				0.377909
				0.375525
				0.373861
				0.373013
				0.373013
				0.373861
				0.375525
				0.377909
				0.380796
				0.383801
				0.386384
				0.387982
				0.388214
				0.38706
				0.384862
				0.382128
				0.379266
				0.376681
				0.37343
				0.366201
				0.372359
				0.376125
				0.379346
				0.379995
				0.380752
				0.381553
				0.382296
				0.382796
				0.382895
				0.382534
				0.381785
				0.380814
				0.379809
				0.378924
				0.378251
				0.377837
				0.377698
				0.377837
				0.378251
				0.378924
				0.379809
				0.380814
				0.381784
				0.382533
				0.382894
				0.382796
				0.382296
				0.381553
				0.380752
				0.379994
				0.379346
				0.376125
				0.377488
				0.379914
				0.380413
				0.380434
				0.380596
				0.380791
				0.380958
				0.381029
				0.380961
				0.380753
				0.380444
				0.380097
				0.379769
				0.379501
				0.379315
				0.379221
				0.379221
				0.379315
				0.379501
				0.379769
				0.380097
				0.380444
				0.380753
				0.380961
				0.381029
				0.380958
				0.380791
				0.380596
				0.380434
				0.380413
				0.379914
				0.377488
				0.378965
				0.379703
				0.380234
				0.38021
				0.38022
				0.380265
				0.380318
				0.380353
				0.380348
				0.380295
				0.380199
				0.380078
				0.379955
				0.379847
				0.379765
				0.379715
				0.379698
				0.379715
				0.379765
				0.379847
				0.379955
				0.380078
				0.380199
				0.380295
				0.380348
				0.380353
				0.380318
				0.380265
				0.38022
				0.38021
				0.380234
				0.379703
			</DataArray>
			<DataArray type="Float64" Name="pressure" Format="ascii">
				1.33287
				1.32222
				1.2876
				1.22751
				1.14714
				1.05638
				0.968895
				0.902705
				0.879425
				0.908687
				0.977839
				1.06692
				1.15992
				1.2448
				1.31232
				1.35565
				1.37058
				1.35566
				1.31232
				1.2448
				1.15992
				1.06693
				0.977842
				0.908691
				0.879429
				0.902709
				0.968898
				1.05639
				1.14714
				1.22752
				1.2876
				1.32222
				1.32242
				1.30686
				1.27411
				1.22598
				1.16735
				1.10559
				1.05131
				1.01871
				1.02
				1.05434
				1.10954
				1.17241
				1.23294
				1.28402
				1.3207
				1.33982
				1.33982
				1.3207
				1.28402
				1.23294
				1.17241
				1.10954
				1.05435
				1.02001
				1.01871
				1.05131
				1.10559
				1.16736
				1.22598
				1.27411
				1.30686
				1.32242
				1.29545
				1.29122
				1.27806
				1.25645
				1.22837
				1.19668
				1.16597
				1.1428
				1.13411
				1.14308
				1.16655
				1.19778
				1.23023
				1.25913
				1.28144
				1.29541
				1.30015
				1.29541
				1.28144
				1.25913
				1.23023
				1.19778
				1.16655
				1.14308
				1.13412
				1.1428
				1.16597
				1.19668
				1.22837
				1.25645
				1.27806
				1.29122
				1.26495
				1.26107
				1.25322
				1.24211
				1.22883
				1.21501
				1.20323
				1.1964
				1.19662
				1.20387
				1.21608
				1.23029
				1.24391
				1.25514
				1.26301
				1.26702
				1.26702
				1.26301
				1.25514
				1.24391
				1.23029
				1.21608
				1.20387
				1.19662
				1.1964
				1.20323
				1.21502
				1.22883
				1.24211
				1.25322
				1.26107
				1.26495
				1.24798
				1.24727
				1.24503
				1.24133
				1.23661
				1.23137
				1.22646
				1.22294
				1.22177
				1.22333
				1.22719
				1.23238
				1.23782
				1.24264
				1.24631
				1.24858
				1.24935
				1.24858
				1.24631
				1.24264
				1.23782
				1.23238
				1.22719
				1.22333
				1.22177
				1.22294
				1.22646
				1.23137
				1.23661
				1.24133
				1.24503
				1.24727
				1.24036
				1.2399
				1.23887
				1.23741
				1.23568
				1.23392
				1.23247
				1.2317
				1.23183
				1.23286
				1.23453
				1.23646
				1.2383
				1.23982
				1.24087
				1.24141
				1.24141
				1.24087
				1.23982
				1.2383
				1.23646
				1.23453
				1.23286
				1.23184
				1.2317
				1.23247
				1.23392
				1.23568
				1.23741
				1.23887
				1.2399
				1.24036
				1.23764
				1.23763
				1.23745
				1.23705
				1.23655
				1.23599
				1.23548
				1.23514
				1.23507
				1.2353
				1.23579
				1.23641
				1.23706
				1.23763
				1.23807
				1.23833
				1.23842
				1.23833
				1.23807
				1.23763
				1.23706
				1.23641
				1.23579
				1.2353
				1.23507
				1.23514
				1.23548
				1.23599
				1.23655
				1.23705
				1.23745
				1.23763
				1.23677
				1.23682
				1.23673
				1.23659
				1.23644
				1.23629
				1.23618
				1.23616
				1.23623
				1.23641
				1.23664
				1.2369
				1.23713
				1.23732
				1.23745
				1.23751
				1.23751
				1.23745
				1.23732
				1.23713
				1.2369
				1.23664
				1.23641
				1.23623
				1.23616
				1.23618
				1.23629
				1.23644
				1.23659
				1.23673
				1.23682
				1.23677
				1.23662
				1.23666
				1.23666
				1.23662
				1.23657
				1.23652
				1.23648
				1.23647
				1.2365
				1.23657
				1.23666
				1.23677
				1.23687
				1.23695
				1.23701
				1.23705
				1.23706
				1.23705
				1.23701
				1.23695
				1.23687
				1.23677
				1.23666
				1.23657
				1.2365
				1.23647
				1.23648
				1.23652
				1.23657
				1.23662
				1.23666
				1.23666
			</DataArray>
			<DataArray type="Float64" Name="velocity" NumberOfComponents="3" Format="ascii">
				0.0585129 -2.53522e-06 0.0 
				0.117666 -0.264843 0.0 
				0.288869 -0.520399 0.0 
				0.560889 -0.723864 0.0 
				0.908516 -0.830972 0.0 
				1.29063 -0.812522 0.0 
				1.65242 -0.655998 0.0 
				1.92358 -0.37058 0.0 
				2.02403 -0.000194002 0.0 
				1.91713 0.369902 0.0 
				1.64906 0.657799 0.0 
				1.29632 0.822659 0.0 
				0.923751 0.855313 0.0 
				0.581656 0.764628 0.0 
				0.308871 0.571332 0.0 
				0.133648 0.304739 0.0 
				0.0732919 1.96343e-06 0.0 
				0.133648 -0.304735 0.0 
				0.308871 -0.571328 0.0 
				0.581653 -0.764625 0.0 
				0.923747 -0.855309 0.0 
				1.29632 -0.822656 0.0 
				1.64905 -0.657796 0.0 
				1.91712 -0.3699 0.0 
				2.02402 0.000193933 0.0 
				1.92357 0.370578 0.0 
				1.65241 0.655995 0.0 
				1.29062 0.812518 0.0 
				0.908511 0.830967 0.0 
				0.560886 0.723859 0.0 
				0.288867 0.520393 0.0 
				0.117664 0.264838 0.0 
				0.39099 -0.0923435 0.0 
				0.499408 -0.267339 0.0 
				0.6622 -0.414272 0.0 
				0.864403 -0.511256 0.0 
				1.09558 -0.539211 0.0 
				1.33262 -0.483664 0.0 
				1.53841 -0.338793 0.0 
				1.66264 -0.117597 0.0 
				1.66162 0.135459 0.0 
				1.53627 0.357891 0.0 
				1.32919 0.506025 0.0 
				1.08943 0.565361 0.0 
				0.856062 0.539431 0.0 
				0.657703 0.440849 0.0 
				0.514587 0.287311 0.0 
				0.439803 0.0996289 0.0 
				0.439802 -0.0996254 0.0 
				0.514586 -0.287308 0.0 
				0.657701 -0.440846 0.0 
				0.85606 -0.539427 0.0 
				1.08942 -0.565358 0.0 
				1.32918 -0.506023 0.0 
				1.53626 -0.357889 0.0 
				1.66161 -0.135458 0.0 
				1.66263 0.117596 0.0 
				1.5384 0.338791 0.0 
				1.33261 0.483661 0.0 
				1.09558 0.539207 0.0 
				0.8644 0.511252 0.0 
				0.662198 0.414268 0.0 
				0.499407 0.267334 0.0 
				0.390989 0.0923389 0.0 
				0.643026 -1.70904e-06 0.0 
				0.690977 -0.100917 0.0 
				0.778264 -0.185026 0.0 
				0.872047 -0.24827 0.0 
				0.982418 -0.281251 0.0 
				1.10484 -0.274527 0.0 
				1.2231 -0.221034 0.0 
				1.31233 -0.121907 0.0 
				1.34641 0.007038 0.0 
				1.31317 0.136097 0.0 
				1.22377 0.235701 0.0 
				1.10332 0.28959 0.0 
				0.976959 0.295413 0.0 
				0.863589 0.25922 0.0 
				0.775595 0.190718 0.0 
				0.720312 0.100699 0.0 
				0.701503 1.34372e-06 0.0 
				0.720312 -0.100696 0.0 
				0.775594 -0.190715 0.0 
				0.863587 -0.259217 0.0 
				0.976957 -0.29541 0.0 
				1.10332 -0.289587 0.0 
				1.22376 -0.235699 0.0 
				1.31317 -0.136096 0.0 
				1.3464 -0.00703813 0.0 
				1.31233 0.121906 0.0 
				1.22309 0.221032 0.0 
				1.10483 0.274525 0.0 
				0.982416 0.281249 0.0 
				0.872046 0.248267 0.0 
				0.778263 0.185023 0.0 
				0.690976 0.100914 0.0 
				0.832001 -0.0238746 0.0 
				0.879527 -0.0640709 0.0 
				0.920525 -0.0967119 0.0 
				0.965373 -0.118882 0.0 
				1.01912 -0.124771 0.0 
				1.07467 -0.11056 0.0 
				1.12169 -0.0752214 0.0 
				1.14876 -0.0231157 0.0 
				1.14798 0.0352853 0.0 
				1.11952 0.0867123 0.0 
				1.0715 0.12078 0.0 
				1.0154 0.133212 0.0 
				0.961463 0.125135 0.0 
				0.916806 0.100644 0.0 
				0.885494 0.0647478 0.0 
				0.869475 0.0222913 0.0 
				0.869475 -0.0222895 0.0 
				0.885493 -0.064746 0.0 
				0.916806 -0.100643 0.0 
				0.961461 -0.125133 0.0 
				1.01539 -0.13321 0.0 
				1.0715 -0.120778 0.0 
				1.11952 -0.0867115 0.0 
				1.14798 -0.0352851 0.0 
				1.14876 0.0231152 0.0 
				1.12169 0.0752204 0.0 
				1.07467 0.110558 0.0 
				1.01911 0.12477 0.0 
				0.965372 0.11888 0.0 
				0.920524 0.0967099 0.0 
				0.879527 0.0640688 0.0 
				0.832 0.0238725 0.0 
				0.916736 -6.81122e-07 0.0 
				0.93771 -0.0177315 0.0 
				0.961921 -0.0308838 0.0 
				0.978418 -0.0419868 0.0 
				0.998814 -0.0472507 0.0 
				1.02066 -0.045298 0.0 
				1.04053 -0.0352928 0.0 
				1.05447 -0.0179489 0.0 
				1.05895 0.00378499 0.0 
				1.05262 0.0252476 0.0 
				1.03716 0.0418061 0.0 
				1.01642 0.0505964 0.0 
				0.994713 0.051059 0.0 
				0.975452 0.0443306 0.0 
				0.960755 0.032304 0.0 
				0.951673 0.016942 0.0 
				0.948614 5.68399e-07 0.0 
				0.951673 -0.0169408 0.0 
				0.960754 -0.0323029 0.0 
				0.975451 -0.0443296 0.0 
				0.994712 -0.051058 0.0 
				1.01642 -0.0505957 0.0 
				1.03716 -0.0418055 0.0 
				1.05262 -0.0252474 0.0 
				1.05895 -0.00378509 0.0 
				1.05447 0.0179484 0.0 
				1.04053 0.035292 0.0 
				1.02065 0.045297 0.0 
				0.998813 0.0472495 0.0 
				0.978417 0.0419855 0.0 
				0.961921 0.0308824 0.0 
				0.93771 0.0177302 0.0 
				0.96474 -0.00378719 0.0 
				0.98318 -0.00845219 0.0 
				0.991422 -0.0126508 0.0 
				0.998014 -0.0155179 0.0 
				1.00534 -0.0160008 0.0 
				1.01236 -0.0138616 0.0 
				1.01803 -0.00897357 0.0 
				1.02102 -0.00198062 0.0 
				1.02041 0.0057322 0.0 
				1.01627 0.0124762 0.0 
				1.0096 0.0169044 0.0 
				1.0019 0.0184233 0.0 
				0.994531 0.0171717 0.0 
				0.98848 0.0137255 0.0 
				0.984275 0.00878909 0.0 
				0.982138 0.00301836 0.0 
				0.982138 -0.00301771 0.0 
				0.984275 -0.00878846 0.0 
				0.98848 -0.0137249 0.0 
				0.99453 -0.0171712 0.0 
				1.0019 -0.0184228 0.0 
				1.0096 -0.0169041 0.0 
				1.01627 -0.0124761 0.0 
				1.02041 -0.00573223 0.0 
				1.02102 0.00198041 0.0 
				1.01803 0.00897318 0.0 
				1.01236 0.013861 0.0 
				1.00534 0.0160002 0.0 
				0.998014 0.0155172 0.0 
				0.991422 0.01265 0.0 
				0.98318 0.00845139 0.0 
				0.96474 0.00378639 0.0 
				0.980508 -2.64694e-07 0.0 
				0.990106 -0.00258352 0.0 
				0.998331 -0.00332796 0.0 
				1 -0.00463292 0.0 
				1.00194 -0.00515592 0.0 
				1.00399 -0.00489814 0.0 
				1.00589 -0.00371964 0.0 
				1.00717 -0.00171699 0.0 
				1.00742 0.000755499 0.0 
				1.0065 0.00317035 0.0 
				1.00457 0.00501467 0.0 
				1.00209 0.00596974 0.0 
				0.999519 0.00597303 0.0 
				0.997259 0.00515745 0.0 
				0.995545 0.00374397 0.0 
				0.994491 0.00195897 0.0 
				0.994137 1.61055e-07 0.0 
				0.994491 -0.00195865 0.0 
				0.995545 -0.00374366 0.0 
				0.997258 -0.00515719 0.0 
				0.999519 -0.0059728 0.0 
				1.00209 -0.00596957 0.0 
				1.00457 -0.00501459 0.0 
				1.0065 -0.00317036 0.0 
				1.00742 -0.000755602 0.0 
				1.00717 0.00171679 0.0 
				1.00589 0.00371934 0.0 
				1.00399 0.00489777 0.0 
				1.00194 0.00515549 0.0 
				1 0.00463244 0.0 
				0.99833 0.00332746 0.0 
				0.990106 0.002583 0.0 
				0.993641 -0.00113016 0.0 
				0.999793 -0.00156992 0.0 
				1.00108 -0.00153199 0.0 
				1.00113 -0.00176324 0.0 
				1.00154 -0.00176238 0.0 
				1.00203 -0.00152696 0.0 
				1.00246 -0.00101242 0.0 
				1.00265 -0.000276541 0.0 
				1.00247 0.000542008 0.0 
				1.00194 0.00126632 0.0 
				1.00116 0.00175049 0.0 
				1.00027 0.00192658 0.0 
				0.999435 0.00180586 0.0 
				0.998752 0.00144831 0.0 
				0.998278 0.000929224 0.0 
				0.998038 0.000319419 0.0 
				0.998038 -0.00031929 0.0 
				0.998278 -0.000929103 0.0 
				0.998752 -0.00144821 0.0 
				0.999435 -0.00180578 0.0 
				1.00027 -0.00192653 0.0 
				1.00116 -0.00175048 0.0 
				1.00194 -0.00126636 0.0 
				1.00247 -0.000542099 0.0 
				1.00265 0.000276397 0.0 
				1.00246 0.00101224 0.0 
				1.00203 0.00152674 0.0 
				1.00154 0.00176214 0.0 
				1.00113 0.00176299 0.0 
				1.00108 0.00153174 0.0 
				0.999793 0.00156966 0.0 
				0.993641 0.00112991 0.0 
				0.997406 -4.25305e-08 0.0 
				0.999266 -0.000790835 0.0 
				1.00061 -0.000661131 0.0 
				1.00055 -0.000654502 0.0 
				1.00057 -0.000661716 0.0 
				1.00068 -0.000614933 0.0 
				1.00082 -0.000490095 0.0 
				1.00091 -0.000278947 0.0 
				1.0009 -8.31116e-06 0.0 
				1.00076 0.000267648 0.0 
				1.00052 0.000489428 0.0 
				1.00021 0.00061597 0.0 
				0.999901 0.000635092 0.0 
				0.999626 0.000558522 0.0 
				0.999418 0.00041009 0.0 
				0.999289 0.000215936 0.0 
				0.999246 2.20602e-08 0.0 
				0.999289 -0.000215893 0.0 
				0.999418 -0.000410053 0.0 
				0.999626 -0.000558494 0.0 
				0.999901 -0.000635077 0.0 
				1.00021 -0.000615972 0.0 
				1.00052 -0.000489453 0.0 
				1.00076 -0.000267697 0.0 
				1.0009 8.24025e-06 0.0 
				1.00091 0.000278857 0.0 
				1.00082 0.000489992 0.0 
				1.00068 0.000614825 0.0 
				1.00057 0.000661611 0.0 
				1.00055 0.000654402 0.0 
				1.00061 0.000661036 0.0 
				0.999266 0.000790746 0.0 
			</DataArray>
		</PointData>
		<Points>
		<DataArray type="Float64" NumberOfComponents="3" Format="ascii">
			0.5 0 0.0 
			0.490393 0.0975452 0.0 
			0.46194 0.191342 0.0 
			0.415735 0.277785 0.0 
			0.353553 0.353553 0.0 
			0.277785 0.415735 0.0 
			0.191342 0.46194 0.0 
			0.0975451 0.490393 0.0 
			-2.18557e-08 0.5 0.0 
			-0.0975452 0.490393 0.0 
			-0.191342 0.46194 0.0 
			-0.277785 0.415735 0.0 
			-0.353553 0.353553 0.0 
			-0.415735 0.277785 0.0 
			-0.46194 0.191342 0.0 
			-0.490393 0.0975451 0.0 
			-0.5 -4.37114e-08 0.0 
			-0.490393 -0.0975452 0.0 
			-0.46194 -0.191342 0.0 
			-0.415735 -0.277785 0.0 
			-0.353553 -0.353553 0.0 
			-0.277785 -0.415735 0.0 
			-0.191342 -0.46194 0.0 
			-0.0975451 -0.490393 0.0 
			6.55671e-08 -0.5 0.0 
			0.0975452 -0.490393 0.0 
			0.191342 -0.46194 0.0 
			0.277785 -0.415735 0.0 
			0.353553 -0.353553 0.0 
			0.415735 -0.277785 0.0 
			0.46194 -0.191342 0.0 
			0.490393 -0.0975451 0.0 
			0.640494 0.0630831 0.0 
			0.61588 0.186825 0.0 
			0.567598 0.303387 0.0 
			0.497504 0.408291 0.0 
			0.408291 0.497504 0.0 
			0.303387 0.567598 0.0 
			0.186825 0.61588 0.0 
			0.0630831 0.640494 0.0 
			-0.0630831 0.640494 0.0 
			-0.186825 0.61588 0.0 
			-0.303387 0.567598 0.0 
			-0.408291 0.497504 0.0 
			-0.497504 0.408291 0.0 
			-0.567598 0.303387 0.0 
			-0.61588 0.186825 0.0 
			-0.640494 0.0630831 0.0 
			-0.640494 -0.0630832 0.0 
			-0.61588 -0.186825 0.0 
			-0.567598 -0.303388 0.0 
			-0.497504 -0.408291 0.0 
			-0.408291 -0.497504 0.0 
			-0.303387 -0.567598 0.0 
			-0.186825 -0.61588 0.0 
			-0.063083 -0.640494 0.0 
			0.0630832 -0.640494 0.0 
			0.186825 -0.61588 0.0 
			0.303388 -0.567598 0.0 
			0.408291 -0.497504 0.0 
			0.497504 -0.408291 0.0 
			0.567598 -0.303387 0.0 
			0.61588 -0.186825 0.0 
			0.640494 -0.063083 0.0 
			0.901832 0 0.0 
			0.884503 0.175939 0.0 
			0.833184 0.345116 0.0 
			0.749846 0.501031 0.0 
			0.637691 0.637691 0.0 
			0.501031 0.749846 0.0 
			0.345116 0.833184 0.0 
			0.175939 0.884503 0.0 
			-3.94203e-08 0.901832 0.0 
			-0.175939 0.884503 0.0 
			-0.345116 0.833184 0.0 
			-0.501031 0.749846 0.0 
			-0.637691 0.637691 0.0 
			-0.749846 0.501031 0.0 
			-0.833184 0.345116 0.0 
			-0.884503 0.175939 0.0 
			-0.901832 -7.88406e-08 0.0 
			-0.884503 -0.175939 0.0 
			-0.833184 -0.345116 0.0 
			-0.749846 -0.501031 0.0 
			-0.637691 -0.637691 0.0 
			-0.501031 -0.749846 0.0 
			-0.345116 -0.833184 0.0 
			-0.175939 -0.884503 0.0 
			1.18261e-07 -0.901832 0.0 
			0.175939 -0.884503 0.0 
			0.345116 -0.833184 0.0 
			0.501031 -0.749846 0.0 
			0.637691 -0.637691 0.0 
			0.749846 -0.501031 0.0 
			0.833184 -0.345116 0.0 
			0.884503 -0.175938 0.0 
			1.35967 0.133916 0.0 
			1.30742 0.396602 0.0 
			1.20493 0.644047 0.0 
			1.05613 0.866742 0.0 
			0.866742 1.05613 0.0 
			0.644047 1.20493 0.0 
			0.396602 1.30742 0.0 
			0.133916 1.35967 0.0 
			-0.133916 1.35967 0.0 
			-0.396602 1.30742 0.0 
			-0.644047 1.20493 0.0 
			-0.866742 1.05613 0.0 
			-1.05613 0.866742 0.0 
			-1.20493 0.644047 0.0 
			-1.30742 0.396602 0.0 
			-1.35967 0.133916 0.0 
			-1.35967 -0.133916 0.0 
			-1.30742 -0.396602 0.0 
			-1.20493 -0.644047 0.0 
			-1.05613 -0.866742 0.0 
			-0.866742 -1.05613 0.0 
			-0.644047 -1.20493 0.0 
			-0.396602 -1.30742 0.0 
			-0.133916 -1.35967 0.0 
			0.133916 -1.35967 0.0 
			0.396602 -1.30742 0.0 
			0.644047 -1.20493 0.0 
			0.866742 -1.05613 0.0 
			1.05613 -0.866742 0.0 
			1.20493 -0.644047 0.0 
			1.30742 -0.396602 0.0 
			1.35967 -0.133916 0.0 
			2.20148 0 0.0 
			2.15917 0.429487 0.0 
			2.0339 0.842468 0.0 
			1.83046 1.22307 0.0 
			1.55668 1.55668 0.0 
			1.22307 1.83046 0.0 
			0.842468 2.0339 0.0 
			0.429486 2.15917 0.0 
			-9.62295e-08 2.20148 0.0 
			-0.429487 2.15917 0.0 
			-0.842468 2.0339 0.0 
			-1.22307 1.83046 0.0 
			-1.55668 1.55668 0.0 
			-1.83046 1.22307 0.0 
			-2.0339 0.842468 0.0 
			-2.15917 0.429486 0.0 
			-2.20148 -1.92459e-07 0.0 
			-2.15917 -0.429487 0.0 
			-2.0339 -0.842468 0.0 
			-1.83046 -1.22307 0.0 
			-1.55668 -1.55668 0.0 
			-1.22307 -1.83046 0.0 
			-0.842468 -2.0339 0.0 
			-0.429486 -2.15917 0.0 
			2.88689e-07 -2.20148 0.0 
			0.429487 -2.15917 0.0 
			0.842468 -2.0339 0.0 
			1.22307 -1.83046 0.0 
			1.55668 -1.55668 0.0 
			1.83046 -1.22307 0.0 
			2.0339 -0.842468 0.0 
			2.15917 -0.429486 0.0 
			3.68572 0.363012 0.0 
			3.54408 1.07508 0.0 
			3.26624 1.74584 0.0 
			2.86288 2.34951 0.0 
			2.34951 2.86288 0.0 
			1.74584 3.26624 0.0 
			1.07508 3.54408 0.0 
			0.363011 3.68572 0.0 
			-0.363012 3.68572 0.0 
			-1.07508 3.54408 0.0 
			-1.74584 3.26624 0.0 
			-2.34951 2.86288 0.0 
			-2.86288 2.34951 0.0 
			-3.26624 1.74584 0.0 
			-3.54408 1.07508 0.0 
			-3.68572 0.363011 0.0 
			-3.68572 -0.363012 0.0 
			-3.54408 -1.07508 0.0 
			-3.26624 -1.74584 0.0 
			-2.86288 -2.34951 0.0 
			-2.34951 -2.86288 0.0 
			-1.74584 -3.26624 0.0 
			-1.07508 -3.54408 0.0 
			-0.363011 -3.68572 0.0 
			0.363012 -3.68572 0.0 
			1.07508 -3.54408 0.0 
			1.74584 -3.26624 0.0 
			2.34951 -2.86288 0.0 
			2.86288 -2.34951 0.0 
			3.26624 -1.74584 0.0 
			3.54408 -1.07508 0.0 
			3.68572 -0.363011 0.0 
			6.40491 0 0.0 
			6.28184 1.24954 0.0 
			5.91737 2.45105 0.0 
			5.32549 3.55838 0.0 
			4.52896 4.52896 0.0 
			3.55838 5.32549 0.0 
			2.45105 5.91737 0.0 
			1.24954 6.28184 0.0 
			-2.79968e-07 6.40491 0.0 
			-1.24954 6.28184 0.0 
			-2.45105 5.91737 0.0 
			-3.55838 5.32549 0.0 
			-4.52896 4.52896 0.0 
			-5.32549 3.55838 0.0 
			-5.91737 2.45105 0.0 
			-6.28184 1.24954 0.0 
			-6.40491 -5.59935e-07 0.0 
			-6.28184 -1.24954 0.0 
			-5.91737 -2.45105 0.0 
			-5.32549 -3.55838 0.0 
			-4.52896 -4.52896 0.0 
			-3.55838 -5.32549 0.0 
			-2.45105 -5.91737 0.0 
			-1.24954 -6.28184 0.0 
			8.39903e-07 -6.40491 0.0 
			1.24954 -6.28184 0.0 
			2.45105 -5.91737 0.0 
			3.55838 -5.32549 0.0 
			4.52896 -4.52895 0.0 
			5.32549 -3.55838 0.0 
			5.91737 -2.45105 0.0 
			6.28184 -1.24953 0.0 
			11.2088 1.10397 0.0 
			10.7781 3.2695 0.0 
			9.93314 5.30938 0.0 
			8.70647 7.14522 0.0 
			7.14522 8.70647 0.0 
			5.30938 9.93314 0.0 
			3.2695 10.7781 0.0 
			1.10397 11.2088 0.0 
			-1.10397 11.2088 0.0 
			-3.2695 10.7781 0.0 
			-5.30938 9.93314 0.0 
			-7.14522 8.70647 0.0 
			-8.70647 7.14522 0.0 
			-9.93315 5.30938 0.0 
			-10.7781 3.2695 0.0 
			-11.2088 1.10397 0.0 
			-11.2088 -1.10398 0.0 
			-10.7781 -3.2695 0.0 
			-9.93314 -5.30938 0.0 
			-8.70647 -7.14522 0.0 
			-7.14522 -8.70648 0.0 
			-5.30938 -9.93315 0.0 
			-3.2695 -10.7781 0.0 
			-1.10397 -11.2088 0.0 
			1.10398 -11.2088 0.0 
			3.2695 -10.7781 0.0 
			5.30938 -9.93314 0.0 
			7.14522 -8.70647 0.0 
			8.70648 -7.14522 0.0 
			9.93315 -5.30937 0.0 
			10.7781 -3.2695 0.0 
			11.2088 -1.10397 0.0 
			20.0001 0 0.0 
			19.6158 3.90182 0.0 
			18.4777 7.6537 0.0 
			16.6295 11.1114 0.0 
			14.1422 14.1422 0.0 
			11.1114 16.6295 0.0 
			7.6537 18.4777 0.0 
			3.90182 19.6158 0.0 
			-8.74231e-07 20.0001 0.0 
			-3.90182 19.6158 0.0 
			-7.6537 18.4777 0.0 
			-11.1114 16.6295 0.0 
			-14.1422 14.1422 0.0 
			-16.6295 11.1114 0.0 
			-18.4777 7.65369 0.0 
			-19.6158 3.90182 0.0 
			-20.0001 -1.74846e-06 0.0 
			-19.6158 -3.90182 0.0 
			-18.4777 -7.6537 0.0 
			-16.6295 -11.1114 0.0 
			-14.1422 -14.1422 0.0 
			-11.1114 -16.6295 0.0 
			-7.65369 -18.4777 0.0 
			-3.90182 -19.6158 0.0 
			2.62269e-06 -20.0001 0.0 
			3.90182 -19.6158 0.0 
			7.6537 -18.4777 0.0 
			11.1114 -16.6295 0.0 
			14.1422 -14.1422 0.0 
			16.6295 -11.1114 0.0 
			18.4777 -7.65369 0.0 
			19.6158 -3.90182 0.0 
		</DataArray>
		</Points>
		<Cells>
			<DataArray type="UInt32" Name="connectivity" Format="ascii">
				0 32 1 
				0 63 32 
				1 33 2 
				1 32 33 
				2 34 3 
				2 33 34 
				3 35 4 
				3 34 35 
				4 36 5 
				4 35 36 
				5 37 6 
				5 36 37 
				6 38 7 
				6 37 38 
				7 39 8 
				7 38 39 
				8 40 9 
				8 39 40 
				9 41 10 
				9 40 41 
				10 42 11 
				10 41 42 
				11 43 12 
				11 42 43 
				12 44 13 
				12 43 44 
				13 45 14 
				13 44 45 
				14 46 15 
				14 45 46 
				15 47 16 
				15 46 47 
				16 48 17 
				16 47 48 
				17 49 18 
				17 48 49 
				18 50 19 
				18 49 50 
				19 51 20 
				19 50 51 
				20 52 21 
				20 51 52 
				21 53 22 
				21 52 53 
				22 54 23 
				22 53 54 
				23 55 24 
				23 54 55 
				24 56 25 
				24 55 56 
				25 57 26 
				25 56 57 
				26 58 27 
				26 57 58 
				27 59 28 
				27 58 59 
				28 60 29 
				28 59 60 
				29 61 30 
				29 60 61 
				30 62 31 
				30 61 62 
				31 63 0 
				31 62 63 
				32 64 65 
				32 63 64 
				33 65 66 
				33 32 65 
				34 66 67 
				34 33 66 
				35 67 68 
				35 34 67 
				36 68 69 
				36 35 68 
				37 69 70 
				37 36 69 
				38 70 71 
				38 37 70 
				39 71 72 
				39 38 71 
				40 72 73 
				40 39 72 
				41 73 74 
				41 40 73 
				42 74 75 
				42 41 74 
				43 75 76 
				43 42 75 
				44 76 77 
				44 43 76 
				45 77 78 
				45 44 77 
				46 78 79 
				46 45 78 
				47 79 80 
				47 46 79 
				48 80 81 
				48 47 80 
				49 81 82 
				49 48 81 
				50 82 83 
				50 49 82 
				51 83 84 
				51 50 83 
				52 84 85 
				52 51 84 
				53 85 86 
				53 52 85 
				54 86 87 
				54 53 86 
				55 87 88 
				55 54 87 
				56 88 89 
				56 55 88 
				57 89 90 
				57 56 89 
				58 90 91 
				58 57 90 
				59 91 92 
				59 58 91 
				60 92 93 
				60 59 92 
				61 93 94 
				61 60 93 
				62 94 95 
				62 61 94 
				63 95 64 
				63 62 95 
				64 96 65 
				64 127 96 
				65 97 66 
				65 96 97 
				66 98 67 
				66 97 98 
				67 99 68 
				67 98 99 
				68 100 69 
				68 99 100 
				69 101 70 
				69 100 101 
				70 102 71 
				70 101 102 
				71 103 72 
				71 102 103 
				72 104 73 
				72 103 104 
				73 105 74 
				73 104 105 
				74 106 75 
				74 105 106 
				75 107 76 
				75 106 107 
				76 108 77 
				76 107 108 
				77 109 78 
				77 108 109 
				78 110 79 
				78 109 110 
				79 111 80 
				79 110 111 
				80 112 81 
				80 111 112 
				81 113 82 
				81 112 113 
				82 114 83 
				82 113 114 
				83 115 84 
				83 114 115 
				84 116 85 
				84 115 116 
				85 117 86 
				85 116 117 
				86 118 87 
				86 117 118 
				87 119 88 
				87 118 119 
				88 120 89 
				88 119 120 
				89 121 90 
				89 120 121 
				90 122 91 
				90 121 122 
				91 123 92 
				91 122 123 
				92 124 93 
				92 123 124 
				93 125 94 
				93 124 125 
				94 126 95 
				94 125 126 
				95 127 64 
				95 126 127 
				96 128 129 
				96 127 128 
				97 129 130 
				97 96 129 
				98 130 131 
				98 97 130 
				99 131 132 
				99 98 131 
				100 132 133 
				100 99 132 