<VTKFile type="UnstructuredGrid" version="0.1" byte_order="LittleEndian">
<UnstructuredGrid>
	<Piece NumberOfPoints="288" NumberOfCells="512">
		<CellData Scalars="density" Vectors="velocity">
			<DataArray type="Float64" Name="density" Format="ascii">
				1.05686
				1.04777
				1.04088
				1.04018
				1.01149
				1.02297
				0.96783
				0.994015
				0.913941
				0.953497
				0.856366
				0.906028
				0.804371
				0.859172
				0.771539
				0.823883
				0.773243
				0.81378
				0.808083
				0.833995
				0.861467
				0.874893
				0.920642
				0.924296
				0.976806
				0.973606
				1.02382
				1.0171
				1.05742
				1.05083
				1.07487
				1.07213
				1.07487
				1.07941
				1.05742
				1.07213
				1.02383
				1.05083
				0.976807
				1.0171
				0.920644
				0.973607
				0.861469
				0.924297
				0.808085
				0.874895
				0.773246
				0.833997
				0.771542
				0.813782
				0.804373
				0.823885
				0.856368
				0.859174
				0.913943
				0.90603
				0.967831
				0.953498
				1.01149
				0.994016
				1.04088
				1.02297
				1.05686
				1.04018
				1.03956
				1.05556
				1.03199
				1.05019
				1.01891
				1.0368
				0.998497
				1.01501
				0.973106
				0.986418
				0.946215
				0.953273
				0.922745
				0.919532
				0.909155
				0.892037
				0.910855
				0.880173
				0.927328
				0.889035
				0.952671
				0.914082
				0.98058
				0.94687
				1.00658
				0.980492
				1.02788
				1.01034
				1.04283
				1.03344
				1.0505
				1.04796
				1.0505
				1.05291
				1.04283
				1.04796
				1.02788
				1.03344
				1.00658
				1.01034
				0.980581
				0.980493
				0.952672
				0.946871
				0.927329
				0.914083
				0.910856
				0.889037
				0.909157
				0.880175
				0.922746
				0.892039
				0.946216
				0.919533
				0.973107
				0.953274
				0.998498
				0.986419
				1.01891
				1.01501
				1.03199
				1.0368
				1.03956
				1.05019
				1.02933
				1.02212
				1.02532
				1.02004
				1.01695
				1.01561
				1.0047
				1.00775
				0.989501
				0.997114
				0.973002
				0.985104
				0.958184
				0.97351
				0.94899
				0.9649
				0.948579
				0.961905
				0.957059
				0.965735
				0.971562
				0.975227
				0.98832
				0.987697
				1.00426
				1.00047
				1.01738
				1.01164
				1.02656
				1.02012
				1.03126
				1.02534
				1.03126
				1.02711
				1.02656
				1.02534
				1.01738
				1.02012
				1.00426
				1.01165
				0.988321
				1.00047
				0.971562
				0.987697
				0.95706
				0.975228
				0.94858
				0.965735
				0.948991
				0.961906
				0.958185
				0.964901
				0.973003
				0.97351
				0.989501
				0.985104
				1.0047
				0.997114
				1.01695
				1.00775
				1.02532
				1.01561
				1.02933
				1.02004
				1.00818
				1.01179
				1.00769
				1.0119
				1.00573
				1.01008
				1.0021
				1.00576
				0.997536
				0.999881
				0.992688
				0.993079
				0.988528
				0.986517
				0.986141
				0.98168
				0.986273
				0.979932
				0.988923
				0.981838
				0.993342
				0.986814
				0.998462
				0.993506
				1.00333
				1.00047
				1.00732
				1.00662
				1.01009
				1.01129
				1.0115
				1.01418
				1.0115
				1.01515
				1.01009
				1.01418
				1.00732
				1.01129
				1.00333
				1.00662
				0.998463
				1.00047
				0.993342
				0.993506
				0.988923
				0.986815
				0.986273
				0.981838
				0.986141
				0.979933
				0.988528
				0.981681
				0.992688
				0.986518
				0.997537
				0.993079
				1.0021
				0.999882
				1.00573
				1.00576
				1.00769
				1.01008
				1.00818
				1.0119
				1.00332
				1.00173
				1.00433
				1.00237
				1.00315
				1.00262
				1.00117
				1.00163
				0.998754
				1.00012
				0.996267
				0.998361
				0.994194
				0.996699
				0.99305
				0.995515
				0.993174
				0.995129
				0.994549
				0.995665
				0.996805
				0.996982
				0.999414
				0.998746
				1.0019
				1.00059
				1.00393
				1.00221
				1.00534
				1.00344
				1.00606
				1.0042
				1.00606
				1.00445
				1.00534
				1.0042
				1.00393
				1.00344
				1.0019
				1.00221
				0.999414
				1.00059
				0.996805
				0.998746
				0.994549
				0.996982
				0.993174
				0.995665
				0.99305
				0.995129
				0.994195
				0.995515
				0.996267
				0.9967
				0.998754
				0.998361
				1.00117
				1.00012
				1.00315
				1.00163
				1.00433
				1.00262
				1.00332
				1.00237
				0.999888
				0.999793
				1.00087
				1.00116
				1.00077
				1.00141
				1.0003
				1.0007
				0.99974
				0.99995
				0.999168
				0.999117
				0.998704
				0.998351
				0.998462
				0.997823
				0.998518
				0.997684
				0.998865
				0.997989
				0.99942
				0.998663
				1.00006
				0.999546
				1.00066
				1.00046
				1.00116
				1.00126
				1.0015
				1.00186
				1.00168
				1.00224
				1.00168
				1.00236
				1.0015
				1.00224
				1.00116
				1.00186
				1.00066
				1.00126
				1.00006
				1.00046
				0.99942
				0.999546
				0.998865
				0.998663
				0.998518
				0.997989
				0.998462
				0.997685
				0.998704
				0.997823
				0.999168
				0.998351
				0.99974
				0.999117
				1.0003
				0.99995
				1.00077
				1.0007
				1.00087
				1.00141
				0.999888
				1.00116
				0.999608
				0.999213
				1.00057
				0.99997
				1.00027
				1.00033
				1.00006
				1.00017
				0.999812
				0.999999
				0.999566
				0.99982
				0.999372
				0.999662
				0.999284
				0.999558
				0.999333
				0.999539
				0.999516
				0.999616
				0.999789
				0.999773
				1.0001
				0.999975
				1.00038
				1.00018
				1.00062
				1.00037
				1.00078
				1.0005
				1.00086
				1.00059
				1.00086
				1.00062
				1.00078
				1.00059
				1.00062
				1.0005
				1.00038
				1.00037
				1.0001
				1.00018
				0.999789
				0.999975
				0.999516
				0.999773
				0.999333
				0.999616
				0.999284
				0.99954
				0.999372
				0.999558
				0.999566
				0.999662
				0.999812
				0.99982
				1.00006
				0.999999
				1.00027
				1.00017
				1.00057
				1.00033
				0.999609
				0.99997
				0.999572
				0.999255
				1.00007
				0.999969
				1.00003
				1.00008
				0.999959
				0.999963
				0.999903
				0.999915
				0.999859
				0.999851
				0.999838
				0.999799
				0.999852
				0.999777
				0.999906
				0.999804
				0.999993
				0.99988
				1.0001
				0.999996
				1.0002
				1.00013
				1.00029
				1.00026
				1.00037
				1.00037
				1.00041
				1.00045
				1.00044
				1.0005
				1.00044
				1.00051
				1.00041
				1.0005
				1.00037
				1.00045
				1.00029
				1.00037
				1.0002
				1.00026
				1.0001
				1.00013
				0.999993
				0.999997
				0.999906
				0.99988
				0.999852
				0.999804
				0.999838
				0.999778
				0.999859
				0.999799
				0.999903
				0.999851
				0.999959
				0.999915
				1.00003
				0.999963
				1.00007
				1.00008
				0.999572
				0.999969
			</DataArray>
			<DataArray type="Float64" Name="mach-number" Format="ascii">
				0.0684596
				0.0773519
				0.171744
				0.134627
				0.293131
				0.237706
				0.419908
				0.35083
				0.546009
				0.464881
				0.664805
				0.573575
				0.765569
				0.668854
				0.827946
				0.737375
				0.82611
				0.760242
				0.763841
				0.729835
				0.666983
				0.66037
				0.554204
				0.569074
				0.434836
				0.466666
				0.313323
				0.359227
				0.192435
				0.251309
				0.0799825
				0.15104
				0.079981
				0.0961591
				0.192433
				0.151039
				0.313321
				0.251308
				0.434834
				0.359226
				0.554201
				0.466664
				0.666979
				0.569072
				0.763837
				0.660367
				0.826105
				0.729831
				0.827941
				0.760238
				0.765564
				0.737371
				0.664801
				0.66885
				0.546006
				0.573571
				0.419905
				0.464878
				0.293129
				0.350827
				0.171742
				0.237704
				0.0684578
				0.134625
				0.199257
				0.152126
				0.249386
				0.189036
				0.308756
				0.259934
				0.371735
				0.336609
				0.436089
				0.4149
				0.497489
				0.491281
				0.548584
				0.56045
				0.578914
				0.612827
				0.578969
				0.634524
				0.54875
				0.617296
				0.49733
				0.567659
				0.434709
				0.498448
				0.368582
				0.419944
				0.30545
				0.339348
				0.252909
				0.263551
				0.2215
				0.203539
				0.2215
				0.178881
				0.252908
				0.203538
				0.305449
				0.26355
				0.368581
				0.339347
				0.434707
				0.419942
				0.497328
				0.498446
				0.548748
				0.567656
				0.578966
				0.617293
				0.578911
				0.634521
				0.548581
				0.612824
				0.497487
				0.560447
				0.436087
				0.491278
				0.371733
				0.414899
				0.308754
				0.336607
				0.249385
				0.259932
				0.199256
				0.189035
				0.259949
				0.278659
				0.294184
				0.298519
				0.327659
				0.325678
				0.364341
				0.351441
				0.40487
				0.381717
				0.445216
				0.41416
				0.47913
				0.444047
				0.499277
				0.465587
				0.500013
				0.473491
				0.481048
				0.465534
				0.447435
				0.443943
				0.406165
				0.413826
				0.363681
				0.380764
				0.325425
				0.349581
				0.296211
				0.32416
				0.280251
				0.30753
				0.280251
				0.301739
				0.296211
				0.30753
				0.325424
				0.32416
				0.36368
				0.34958
				0.406164
				0.380763
				0.447433
				0.413825
				0.481046
				0.443942
				0.500011
				0.465532
				0.499275
				0.473489
				0.479128
				0.465585
				0.445215
				0.444046
				0.404869
				0.414159
				0.364339
				0.381716
				0.327658
				0.351441
				0.294184
				0.325678
				0.259949
				0.298519
				0.33479
				0.316727
				0.351367
				0.332187
				0.361107
				0.348509
				0.372705
				0.361874
				0.38638
				0.379089
				0.399906
				0.39778
				0.410889
				0.414876
				0.416958
				0.426986
				0.416567
				0.431225
				0.409798
				0.426455
				0.398369
				0.413933
				0.384804
				0.396649
				0.371523
				0.378023
				0.360342
				0.360966
				0.352404
				0.347551
				0.348312
				0.339061
				0.348312
				0.336162
				0.352404
				0.33906
				0.360342
				0.347551
				0.371522
				0.360965
				0.384804
				0.378022
				0.398368
				0.396648
				0.409797
				0.413932
				0.416566
				0.426454
				0.416957
				0.431224
				0.410888
				0.426985
				0.399905
				0.414875
				0.386379
				0.397779
				0.372704
				0.379088
				0.361106
				0.361873
				0.351367
				0.348509
				0.334789
				0.332187
				0.352926
				0.356091
				0.365469
				0.364987
				0.370488
				0.371796
				0.376714
				0.375635
				0.38375
				0.380502
				0.390539
				0.385406
				0.396004
				0.389776
				0.39896
				0.392794
				0.398606
				0.393697
				0.394989
				0.39219
				0.38901
				0.388632
				0.382007
				0.383873
				0.375244
				0.378881
				0.369634
				0.374438
				0.365705
				0.371042
				0.363698
				0.368941
				0.363698
				0.368233
				0.365705
				0.368941
				0.369634
				0.371042
				0.375243
				0.374438
				0.382006
				0.37888
				0.38901
				0.383873
				0.394988
				0.388631
				0.398606
				0.392189
				0.398959
				0.393697
				0.396004
				0.392793
				0.390539
				0.389776
				0.38375
				0.385405
				0.376714
				0.380501
				0.370488
				0.375634
				0.365469
				0.371796
				0.352926
				0.364987
				0.369926
				0.364573
				0.377052
				0.372124
				0.378684
				0.376769
				0.380089
				0.378547
				0.38156
				0.380822
				0.383003
				0.383043
				0.384183
				0.385058
				0.384787
				0.386447
				0.384608
				0.386816
				0.383657
				0.386016
				0.382156
				0.384226
				0.380433
				0.381866
				0.378794
				0.379412
				0.377451
				0.377244
				0.37652
				0.375598
				0.376047
				0.374585
				0.376047
				0.374244
				0.376519
				0.374585
				0.377451
				0.375598
				0.378793
				0.377244
				0.380433
				0.379411
				0.382156
				0.381865
				0.383657
				0.384225
				0.384608
				0.386015
				0.384787
				0.386816
				0.384183
				0.386446
				0.383003
				0.385058
				0.38156
				0.383043
				0.380089
				0.380821
				0.378684
				0.378547
				0.377052
				0.376769
				0.369926
				0.372124
				0.373708
				0.37379
				0.379444
				0.378016
				0.379985
				0.380337
				0.380482
				0.380375
				0.381053
				0.38068
				0.381661
				0.381047
				0.382159
				0.381412
				0.382393
				0.381655
				0.382267
				0.381683
				0.381792
				0.381463
				0.381072
				0.381036
				0.380259
				0.380494
				0.379492
				0.379939
				0.378868
				0.379454
				0.378436
				0.379088
				0.378218
				0.378863
				0.378218
				0.378788
				0.378436
				0.378863
				0.378868
				0.379088
				0.379492
				0.379454
				0.380259
				0.379939
				0.381072
				0.380494
				0.381792
				0.381036
				0.382267
				0.381463
				0.382393
				0.381682
				0.382159
				0.381654
				0.381661
				0.381412
				0.381053
				0.381047
				0.380481
				0.38068
				0.379985
				0.380375
				0.379444
				0.380337
				0.373708
				0.378016
				0.378651
				0.376445
				0.380319
				0.37943
				0.380382
				0.380647
				0.380333
				0.38043
				0.380386
				0.380499
				0.38047
				0.380623
				0.380546
				0.380766
				0.380573
				0.380863
				0.380526
				0.380863
				0.3804
				0.38074
				0.380217
				0.380513
				0.380013
				0.380227
				0.379821
				0.379936
				0.379665
				0.379681
				0.379557
				0.37949
				0.379502
				0.379372
				0.379502
				0.379333
				0.379557
				0.379372
				0.379665
				0.37949
				0.379821
				0.379681
				0.380013
				0.379936
				0.380217
				0.380227
				0.3804
				0.380513
				0.380526
				0.38074
				0.380573
				0.380862
				0.380546
				0.380863
				0.38047
				0.380766
				0.380386
				0.380623
				0.380333
				0.380499
				0.380381
				0.38043
				0.380319
				0.380647
				0.378651
				0.37943
			</DataArray>
			<DataArray type="Float64" Name="pressure" Format="ascii">
				5.33874
				5.27961
				5.24679
				5.24289
				5.0441
				5.12661
				4.74332
				4.92189
				4.37706
				4.64145
				3.99339
				4.32092
				3.65428
				4.01213
				3.44388
				3.78375
				3.45331
				3.71689
				3.67254
				3.84198
				4.01503
				4.10324
				4.40396
				4.42744
				4.78238
				4.75907
				5.10637
				5.0576
				5.34209
				5.2927
				5.466
				5.44261
				5.46601
				5.49407
				5.34209
				5.44261
				5.10638
				5.2927
				4.78239
				5.0576
				4.40397
				4.75908
				4.01504
				4.42745
				3.67255
				4.10325
				3.45333
				3.84199
				3.44389
				3.7169
				3.65429
				3.78376
				3.9934
				4.01215
				4.37707
				4.32093
				4.74333
				4.64146
				5.0441
				4.92189
				5.2468
				5.12661
				5.33874
				5.24289
				5.23532
				5.3322
				5.18767
				5.30627
				5.09209
				5.21308
				4.94894
				5.05989
				4.77369
				4.86226
				4.58996
				4.63648
				4.43074
				4.40984
				4.3383
				4.22712
				4.34774
				4.14797
				4.45612
				4.20476
				4.6256
				4.36966
				4.81477
				4.5892
				4.99313
				4.8179
				5.14064
				5.02373
				5.24484
				5.18483
				5.29856
				5.28689
				5.29856
				5.3218
				5.24484
				5.28689
				5.14064
				5.18483
				4.99313
				5.02373
				4.81478
				4.8179
				4.6256
				4.58921
				4.45613
				4.36967
				4.34775
				4.20477
				4.33831
				4.14798
				4.43075
				4.22713
				4.58997
				4.40985
				4.7737
				4.63649
				4.94894
				4.86226
				5.0921
				5.05989
				5.18767
				5.21308
				5.23532
				5.30627
				5.16475
				5.11601
				5.13654
				5.10228
				5.07321
				5.06633
				4.98575
				5.00772
				4.87921
				4.9317
				4.76506
				4.84711
				4.66353
				4.76635
				4.6008
				4.70679
				4.59762
				4.68594
				4.65472
				4.71174
				4.75321
				4.77631
				4.86796
				4.86163
				4.97791
				4.94954
				5.069
				5.02686
				5.13305
				5.08574
				5.16591
				5.12219
				5.16591
				5.13448
				5.13305
				5.12219
				5.069
				5.08574
				4.97791
				5.02686
				4.86796
				4.94954
				4.75322
				4.86163
				4.65472
				4.77631
				4.59762
				4.71174
				4.60081
				4.68595
				4.66353
				4.7068
				4.76507
				4.76636
				4.87922
				4.84712
				4.98575
				4.9317
				5.07321
				5.00772
				5.13654
				5.06633
				5.16475
				5.10228
				5.01886
				5.04516
				5.00798
				5.04226
				4.98914
				5.02228
				4.96198
				4.98913
				4.92947
				4.9469
				4.89565
				4.89919
				4.86691
				4.85374
				4.85052
				4.82045
				4.85151
				4.80848
				4.86982
				4.82157
				4.90034
				4.85579
				4.93574
				4.90191
				4.96947
				4.95008
				4.99714
				4.9927
				5.01637
				5.0252
				5.02615
				5.04528
				5.02615
				5.05205
				5.01637
				5.04529
				4.99714
				5.0252
				4.96947
				4.99271
				4.93574
				4.95008
				4.90034
				4.90191
				4.86982
				4.85579
				4.85151
				4.82157
				4.85053
				4.80848
				4.86691
				4.82046
				4.89565
				4.85374
				4.92948
				4.8992
				4.96198
				4.9469
				4.98914
				4.98913
				5.00798
				5.02228
				5.01886
				5.04226
				4.98306
				4.97311
				4.98027
				4.97029
				4.96886
				4.96546
				4.9545
				4.95755
				4.93763
				4.94688
				4.92045
				4.93478
				4.90619
				4.92337
				4.89834
				4.91526
				4.89923
				4.91265
				4.90874
				4.9164
				4.92435
				4.92553
				4.94241
				4.93776
				4.95962
				4.95051
				4.97373
				4.96176
				4.98352
				4.97031
				4.9885
				4.97556
				4.9885
				4.97733
				4.98352
				4.97556
				4.97373
				4.97031
				4.95962
				4.96176
				4.94241
				4.95051
				4.92435
				4.93776
				4.90875
				4.92554
				4.89923
				4.9164
				4.89834
				4.91265
				4.90619
				4.91526
				4.92045
				4.92337
				4.93763
				4.93478
				4.95451
				4.94689
				4.96886
				4.95755
				4.98027
				4.96546
				4.98306
				4.97029
				4.95424
				4.95766
				4.9529
				4.95882
				4.95135
				4.95579
				4.94832
				4.9511
				4.9445
				4.94593
				4.94059
				4.94023
				4.93741
				4.93497
				4.93575
				4.93134
				4.93615
				4.93039
				4.93856
				4.93249
				4.94241
				4.93716
				4.94683
				4.94326
				4.95103
				4.94958
				4.95446
				4.95512
				4.95683
				4.95932
				4.95804
				4.96189
				4.95804
				4.96276
				4.95683
				4.96189
				4.95446
				4.95932
				4.95103
				4.95512
				4.94683
				4.94958
				4.94241
				4.94326
				4.93856
				4.93716
				4.93615
				4.93249
				4.93575
				4.93039
				4.93741
				4.93134
				4.94059
				4.93497
				4.9445
				4.94023
				4.94832
				4.94593
				4.95135
				4.9511
				4.9529
				4.95579
				4.95424
				4.95882
				4.94974
				4.94778
				4.94981
				4.94788
				4.94812
				4.94817
				4.94677
				4.94749
				4.94513
				4.94638
				4.94344
				4.94518
				4.94211
				4.9441
				4.9415
				4.94339
				4.94184
				4.94327
				4.9431
				4.94381
				4.94498
				4.94489
				4.9471
				4.94629
				4.94909
				4.94773
				4.95071
				4.949
				4.95183
				4.94995
				4.95239
				4.95054
				4.95239
				4.95073
				4.95183
				4.95054
				4.95071
				4.94995
				4.9491
				4.949
				4.9471
				4.94773
				4.94498
				4.94629
				4.9431
				4.94489
				4.94184
				4.94381
				4.9415
				4.94327
				4.94211
				4.94339
				4.94344
				4.9441
				4.94513
				4.94518
				4.94677
				4.94638
				4.94812
				4.94749
				4.94981
				4.94817
				4.94974
				4.94788
				4.94633
				4.94664
				4.94678
				4.9471
				4.94663
				4.94667
				4.94624
				4.94627
				4.94588
				4.94592
				4.94558
				4.94549
				4.94543
				4.94512
				4.94551
				4.94496
				4.94585
				4.94512
				4.94642
				4.94563
				4.94712
				4.94641
				4.94782
				4.94732
				4.94845
				4.94821
				4.94893
				4.94895
				4.94926
				4.94951
				4.94942
				4.94984
				4.94942
				4.94995
				4.94926
				4.94984
				4.94893
				4.94951
				4.94845
				4.94895
				4.94782
				4.94821
				4.94712
				4.94732
				4.94642
				4.94641
				4.94585
				4.94563
				4.94551
				4.94512
				4.94543
				4.94496
				4.94558
				4.94512
				4.94588
				4.94549
				4.94624
				4.94592
				4.94663
				4.94627
				4.94678
				4.94667
				4.94633
				4.9471
			</DataArray>
			<DataArray type="Float64" Name="velocity" NumberOfComponents="3" Format="ascii">
				0.133003 -0.12432 0
				0.205449 -2.85446e-06 0
				0.254608 -0.378589 0
				0.274243 -0.229537 0
				0.481105 -0.606986 0
				0.443056 -0.44737 0
				0.794633 -0.760511 0
				0.68486 -0.619827 0
				1.1639 -0.802646 0
				0.982654 -0.712179 0
				1.54232 -0.711751 0
				1.30624 -0.700218 0
				1.86888 -0.484769 0
				1.61226 -0.570403 0
				2.06459 -0.145535 0
				1.84115 -0.325716 0
				2.05208 0.236632 0
				1.92244 -0.000943373 0
				1.84214 0.564651 0
				1.82487 0.3243 0
				1.51517 0.779091 0
				1.59189 0.573786 0
				1.1454 0.863123 0
				1.2896 0.713206 0
				0.788031 0.821608 0
				0.972865 0.737465 0
				0.484332 0.671498 0
				0.683742 0.656395 0
				0.264789 0.43795 0
				0.454221 0.4889 0
				0.149852 0.151949 0
				0.307239 0.260265 0
				0.149852 -0.151944 0
				0.25669 2.36757e-06 0
				0.264788 -0.437945 0
				0.307238 -0.26026 0
				0.48433 -0.671493 0
				0.454221 -0.488895 0
				0.788026 -0.821603 0
				0.683739 -0.656391 0
				1.1454 -0.863119 0
				0.972861 -0.73746 0
				1.51517 -0.779086 0
				1.2896 -0.713202 0
				1.84213 -0.564647 0
				1.59189 -0.573783 0
				2.05206 -0.23663 0
				1.82486 -0.324298 0
				2.06458 0.145534 0
				1.92243 0.000943146 0
				1.86887 0.484766 0
				1.84114 0.325714 0
				1.54232 0.711747 0
				1.61225 0.5704 0
				1.16389 0.802641 0
				1.30623 0.700212 0
				0.794628 0.760505 0
				0.982649 0.712174 0
				0.481102 0.606979 0
				0.684856 0.619821 0
				0.254605 0.378583 0
				0.443053 0.447364 0
				0.133002 0.124314 0
				0.274241 0.229531 0
				0.523725 -0.0751065 0
				0.404557 -2.60025e-06 0
				0.627931 -0.208313 0
				0.472837 -0.170896 0
				0.752938 -0.316345 0
				0.610158 -0.321432 0
				0.899168 -0.387774 0
				0.776474 -0.433428 0
				1.06683 -0.40983 0
				0.972491 -0.492135 0
				1.2425 -0.370108 0
				1.18757 -0.482835 0
				1.3981 -0.261507 0
				1.39798 -0.393144 0
				1.49342 -0.0927478 0
				1.5629 -0.221059 0
				1.49327 0.100837 0
				1.62982 0.00968444 0
				1.39749 0.269875 0
				1.56989 0.241974 0
				1.23954 0.380573 0
				1.40771 0.418262 0
				1.0586 0.422378 0
				1.19302 0.512385 0
				0.885247 0.399738 0
				0.969327 0.52305 0
				0.740385 0.324163 0
				0.767846 0.460494 0
				0.637393 0.210011 0
				0.610056 0.340156 0
				0.584104 0.0725915 0
				0.510047 0.180151 0
				0.584103 -0.0725877 0
				0.475839 2.09816e-06 0
				0.637392 -0.210008 0
				0.510046 -0.180147 0
				0.740384 -0.32416 0
				0.610055 -0.340152 0
				0.885245 -0.399735 0
				0.767844 -0.46049 0
				1.05859 -0.422375 0
				0.969324 -0.523046 0
				1.23953 -0.38057 0
				1.19301 -0.512382 0
				1.39749 -0.269874 0
				1.4077 -0.418259 0
				1.49326 -0.100836 0
				1.56989 -0.241972 0
				1.49342 0.0927469 0
				1.62981 -0.0096843 0
				1.39809 0.261504 0
				1.56289 0.221058 0
				1.2425 0.370105 0
				1.39797 0.393142 0
				1.06683 0.409826 0
				1.18757 0.482831 0
				0.899165 0.387769 0
				0.972487 0.492131 0
				0.752937 0.31634 0
				0.776472 0.433423 0
				0.62793 0.208308 0
				0.610156 0.321427 0
				0.523724 0.0751013 0
				0.472834 0.170891 0
				0.68741 -0.0463402 0
				0.737653 -1.53671e-06 0
				0.768565 -0.127651 0
				0.786822 -0.0704607 0
				0.844269 -0.19242 0
				0.851565 -0.124844 0
				0.930835 -0.236168 0
				0.911502 -0.168584 0
				1.03396 -0.250072 0
				0.985976 -0.191797 0
				1.14385 -0.225024 0
				1.07072 -0.187453 0
				1.24083 -0.156727 0
				1.1528 -0.150334 0
				1.29971 -0.0518548 0
				1.21396 -0.0816503 0
				1.30072 0.0679855 0
				1.23652 0.00704596 0
				1.24321 0.173399 0
				1.21295 0.0952791 0
				1.14565 0.242284 0
				1.15101 0.162891 0
				1.03264 0.266882 0
				1.06802 0.198593 0
				0.924729 0.25045 0
				0.981708 0.201011 0
				0.835539 0.201437 0
				0.905272 0.174999 0
				0.772919 0.129664 0
				0.846798 0.127873 0
				0.74082 0.0446613 0
				0.810507 0.0672025 0
				0.74082 -0.0446582 0
				0.798244 1.37268e-06 0
				0.772918 -0.12966 0
				0.810506 -0.0671998 0
				0.835538 -0.201434 0
				0.846797 -0.12787 0
				0.924726 -0.250447 0
				0.90527 -0.174996 0
				1.03264 -0.26688 0
				0.981706 -0.201009 0
				1.14564 -0.242281 0
				1.06802 -0.198591 0
				1.24321 -0.173397 0
				1.15101 -0.16289 0
				1.30071 -0.0679849 0
				1.21294 -0.0952783 0
				1.2997 0.0518542 0
				1.23651 -0.00704604 0
				1.24083 0.156725 0
				1.21396 0.0816492 0
				1.14384 0.225021 0
				1.1528 0.150332 0
				1.03395 0.250069 0
				1.07072 0.187451 0
				0.930833 0.236165 0
				0.985974 0.191795 0
				0.844268 0.192417 0
				0.911501 0.168581 0
				0.768564 0.127648 0
				0.851564 0.12484 0
				0.687409 0.0463366 0
				0.786821 0.0704576 0
				0.883673 -0.0166346 0
				0.836835 -1.19352e-06 0
				0.92598 -0.0393456 0
				0.876551 -0.0383086 0
				0.949743 -0.0600327 0
				0.916955 -0.0683531 0
				0.978492 -0.0741495 0
				0.94911 -0.0929051 0
				1.01332 -0.0775579 0
				0.992081 -0.105674 0
				1.04858 -0.0682805 0
				1.04035 -0.102558 0
				1.07778 -0.0458248 0
				1.08582 -0.0811729 0
				1.09408 -0.0130528 0
				1.11871 -0.0427843 0
				1.09292 0.0234425 0
				1.13023 0.00607468 0
				1.07457 0.0553962 0
				1.11685 0.0545616 0
				1.04413 0.0763321 0
				1.08255 0.0918382 0
				1.00885 0.0836272 0
				1.03651 0.111451 0
				0.975198 0.0781142 0
				0.988541 0.112424 0
				0.947572 0.062522 0
				0.946173 0.0975264 0
				0.928358 0.0400762 0
				0.913931 0.0710269 0
				0.918585 0.0137706 0
				0.894027 0.0372405 0
				0.918585 -0.0137688 0
				0.887324 1.06561e-06 0
				0.928357 -0.0400744 0
				0.894027 -0.0372384 0
				0.947571 -0.0625202 0
				0.91393 -0.0710248 0
				0.975197 -0.0781126 0
				0.946172 -0.0975245 0
				1.00885 -0.0836258 0
				0.98854 -0.112422 0
				1.04413 -0.076331 0
				1.0365 -0.111449 0
				1.07456 -0.0553955 0
				1.08255 -0.0918371 0
				1.09292 -0.0234423 0
				1.11685 -0.054561 0
				1.09408 0.0130524 0
				1.13023 -0.00607477 0
				1.07777 0.0458239 0
				1.11871 0.0427836 0
				1.04858 0.0682791 0
				1.08582 0.0811716 0
				1.01332 0.0775562 0
				1.04034 0.102557 0
				0.978491 0.0741476 0
				0.992079 0.105672 0
				0.949742 0.0600307 0
				0.949109 0.0929028 0
				0.92598 0.0393435 0
				0.916954 0.0683508 0
				0.883673 0.0166325 0
				0.87655 0.0383062 0
				0.93059 -0.00825239 0
				0.938779 -6.79365e-07 0
				0.962743 -0.0197582 0
				0.961586 -0.0110934 0
				0.97515 -0.0305526 0
				0.978837 -0.0174761 0
				0.990861 -0.0374389 0
				0.988501 -0.0243738 0
				1.00884 -0.038849 0
				1.00092 -0.0271829 0
				1.02638 -0.0339198 0
				1.01351 -0.025981 0
				1.04064 -0.022424 0
				1.02481 -0.0201037 0
				1.0484 -0.00580291 0
				1.03266 -0.00992037 0
				1.04744 0.0126453 0
				1.03501 0.00282825 0
				1.0379 0.0287945 0
				1.03105 0.0153717 0
				1.02229 0.039368 0
				1.02178 0.0249755 0
				1.00423 0.0429912 0
				1.00948 0.0299754 0
				0.987035 0.0400682 0
				0.996704 0.0300802 0
				0.97295 0.0320101 0
				0.985443 0.0260043 0
				0.96318 0.0204882 0
				0.976902 0.0188886 0
				0.958222 0.00703444 0
				0.97165 0.00988622 0
				0.958222 -0.00703315 0
				0.969885 5.40752e-07 0
				0.96318 -0.0204869 0
				0.971649 -0.00988516 0
				0.972949 -0.0320089 0
				0.976902 -0.0188875 0
				0.987034 -0.0400671 0
				0.985442 -0.0260033 0
				1.00423 -0.0429902 0
				0.996703 -0.0300794 0
				1.02228 -0.0393673 0
				1.00948 -0.0299747 0
				1.03789 -0.0287941 0
				1.02177 -0.024975 0
				1.04743 -0.0126452 0
				1.03105 -0.0153715 0
				1.04839 0.00580266 0
				1.035 -0.00282836 0
				1.04064 0.0224234 0
				1.03266 0.00991996 0
				1.02637 0.0339188 0
				1.02481 0.020103 0
				1.00884 0.0388478 0
				1.01351 0.0259801 0
				0.99086 0.0374375 0
				1.00092 0.0271818 0
				0.975149 0.0305511 0
				0.9885 0.0243725 0
				0.962743 0.0197567 0
				0.978837 0.0174748 0
				0.93059 0.00825084 0
				0.961586 0.0110921 0
				0.974293 -0.00317329 0
				0.960575 -4.52056e-07 0
				0.992436 -0.00440599 0
				0.979903 -0.00520669 0
				0.996609 -0.00691368 0
				0.991685 -0.00844353 0
				1.00022 -0.00849477 0
				0.996213 -0.0116313 0
				1.00399 -0.00878488 0
				1.00204 -0.012876 0
				1.00768 -0.00759963 0
				1.00773 -0.0122907 0
				1.01071 -0.0048404 0
				1.01291 -0.00944698 0
				1.01227 -0.000885339 0
				1.01649 -0.00451463 0
				1.0118 0.00346651 0
				1.01745 0.00165323 0
				1.00935 0.00725132 0
				1.01538 0.00771463 0
				1.0055 0.00970768 0
				1.01076 0.0123493 0
				1.00108 0.0105096 0
				1.00469 0.014746 0
				0.996895 0.00975055 0
				0.998416 0.0147588 0
				0.993476 0.00776776 0
				0.992899 0.0127365 0
				0.991111 0.00496306 0
				0.988723 0.00923961 0
				0.989912 0.00170259 0
				0.98616 0.00483219 0
				0.989912 -0.00170201 0
				0.9853 3.65828e-07 0
				0.99111 -0.00496249 0
				0.98616 -0.00483146 0
				0.993476 -0.00776723 0
				0.988723 -0.00923892 0
				0.996894 -0.00975009 0
				0.992898 -0.0127358 0
				1.00108 -0.0105092 0
				0.998416 -0.0147582 0
				1.00549 -0.00970742 0
				1.00469 -0.0147456 0
				1.00935 -0.00725121 0
				1.01076 -0.012349 0
				1.0118 -0.00346655 0
				1.01538 -0.00771455 0
				1.01227 0.00088514 0
				1.01745 -0.00165334 0
				1.01071 0.00484005 0
				1.01649 0.00451432 0
				1.00768 0.00759914 0
				1.01291 0.00944649 0
				1.00399 0.00878431 0
				1.00773 0.01229 0
				1.00022 0.0084941 0
				1.00204 0.0128753 0
				0.996609 0.00691295 0
				0.996212 0.0116305 0
				0.992436 0.00440525 0
				0.991685 0.00844266 0
				0.974293 0.00317251 0
				0.979903 0.0052058 0
				0.983947 -0.00173758 0
				0.984166 -2.54741e-07 0
				0.998576 -0.00214818 0
				0.994923 -0.00207357 0
				0.999976 -0.00327312 0
				1.00088 -0.00161518 0
				1.00125 -0.00395599 0
				1.00099 -0.00256688 0
				1.00271 -0.00410932 0
				1.00177 -0.00281762 0
				1.00426 -0.00354319 0
				1.0027 -0.00268299 0
				1.00554 -0.00223985 0
				1.00363 -0.00203506 0
				1.00614 -0.000392026 0
				1.00425 -0.000939248 0
				1.00582 0.00162398 0
				1.00432 0.000410031 0
				1.0046 0.00336596 0
				1.00376 0.00172253 0
				1.00276 0.00448883 0
				1.00267 0.00271746 0
				1.00067 0.00484772 0
				1.00128 0.00322464 0
				0.998716 0.00448944 0
				0.999861 0.00321644 0
				0.997123 0.00357153 0
				0.998622 0.00277012 0
				0.996024 0.00227974 0
				0.997688 0.00200723 0
				0.995468 0.000781707 0
				0.997115 0.00104914 0
				0.995468 -0.000781353 0
				0.996922 1.34455e-07 0
				0.996024 -0.0022794 0
				0.997115 -0.00104887 0
				0.997122 -0.00357121 0
				0.997688 -0.00200698 0