<VTKFile type="UnstructuredGrid" version="0.1" byte_order="LittleEndian">
<UnstructuredGrid>
	<Piece NumberOfPoints="288" NumberOfCells="512">
		<CellData Scalars="density" Vectors="velocity">
			<DataArray type="Float64" Name="density" Format="ascii">
				0.931568
				0.93727
				0.928631
				0.936584
				0.921278
				0.933549
				0.908465
				0.92647
				0.890782
				0.914801
				0.870908
				0.899843
				0.853967
				0.884995
				0.847004
				0.875631
				0.856249
				0.877554
				0.883017
				0.893855
				0.92267
				0.922804
				0.9679
				0.959219
				1.01183
				0.99721
				1.04913
				1.03174
				1.076
				1.05901
				1.09001
				1.07639
				1.09001
				1.08235
				1.076
				1.07639
				1.04913
				1.05901
				1.01183
				1.03174
				0.967899
				0.99721
				0.92267
				0.959219
				0.883017
				0.922804
				0.856249
				0.893855
				0.847004
				0.877554
				0.853967
				0.875631
				0.870908
				0.884995
				0.890782
				0.899844
				0.908465
				0.914801
				0.921278
				0.92647
				0.928631
				0.933549
				0.931568
				0.936584
				0.955102
				0.950025
				0.956499
				0.950336
				0.956908
				0.949892
				0.954163
				0.946401
				0.947963
				0.939048
				0.939887
				0.928814
				0.933061
				0.918344
				0.931321
				0.911766
				0.937582
				0.913502
				0.952167
				0.925877
				0.972709
				0.947489
				0.995618
				0.974274
				1.01752
				1.00174
				1.03587
				1.02625
				1.04894
				1.04528
				1.05571
				1.05726
				1.05571
				1.06134
				1.04894
				1.05726
				1.03587
				1.04528
				1.01752
				1.02625
				0.995618
				1.00174
				0.972709
				0.974274
				0.952167
				0.947489
				0.937582
				0.925877
				0.931321
				0.913502
				0.933061
				0.911766
				0.939888
				0.918344
				0.947963
				0.928815
				0.954163
				0.939048
				0.956908
				0.946401
				0.956499
				0.949892
				0.955102
				0.950336
				0.962861
				0.9679
				0.965567
				0.969944
				0.967807
				0.973927
				0.967319
				0.976187
				0.964226
				0.975303
				0.959986
				0.972194
				0.956762
				0.968786
				0.956935
				0.967231
				0.962155
				0.969285
				0.972422
				0.975641
				0.986108
				0.985605
				1.00089
				0.997507
				1.01465
				1.00948
				1.02592
				1.02001
				1.03379
				1.02807
				1.03782
				1.03309
				1.03782
				1.03479
				1.03379
				1.03309
				1.02592
				1.02807
				1.01465
				1.02001
				1.00089
				1.00948
				0.986108
				0.997507
				0.972422
				0.985605
				0.962155
				0.975641
				0.956935
				0.969285
				0.956762
				0.967231
				0.959986
				0.968786
				0.964226
				0.972194
				0.967319
				0.975303
				0.967807
				0.976187
				0.965567
				0.973927
				0.962861
				0.969944
				0.977007
				0.971074
				0.981643
				0.973697
				0.9864
				0.978787
				0.988354
				0.982179
				0.987971
				0.98292
				0.986766
				0.982105
				0.986044
				0.981122
				0.98674
				0.981247
				0.989326
				0.983397
				0.993687
				0.987821
				0.999194
				0.994017
				1.005
				1.00101
				1.01032
				1.00779
				1.01463
				1.01358
				1.01762
				1.01792
				1.01914
				1.02057
				1.01914
				1.02146
				1.01762
				1.02057
				1.01463
				1.01792
				1.01032
				1.01358
				1.005
				1.00779
				0.999194
				1.00101
				0.993687
				0.994017
				0.989326
				0.987821
				0.98674
				0.983397
				0.986044
				0.981247
				0.986766
				0.981122
				0.987971
				0.982105
				0.988354
				0.98292
				0.9864
				0.982179
				0.981643
				0.978787
				0.977007
				0.973697
				0.978941
				0.982506
				0.984031
				0.985314
				0.989142
				0.990529
				0.991636
				0.993804
				0.99229
				0.994716
				0.992325
				0.994609
				0.99256
				0.994461
				0.993508
				0.994805
				0.995375
				0.995906
				0.998044
				0.997783
				1.00116
				1.00023
				1.00428
				1.00289
				1.00704
				1.00542
				1.00921
				1.00755
				1.01069
				1.00914
				1.01143
				1.01011
				1.01143
				1.01043
				1.01069
				1.01011
				1.00921
				1.00914
				1.00704
				1.00755
				1.00428
				1.00542
				1.00116
				1.00289
				0.998044
				1.00023
				0.995375
				0.997783
				0.993508
				0.995906
				0.99256
				0.994805
				0.992325
				0.994461
				0.99229
				0.994609
				0.991636
				0.994716
				0.989142
				0.993804
				0.984031
				0.990529
				0.978941
				0.985314
				0.988444
				0.984376
				0.992408
				0.987215
				0.995967
				0.992304
				0.997414
				0.995443
				0.997759
				0.996596
				0.997888
				0.996976
				0.998161
				0.997261
				0.998722
				0.997763
				0.9996
				0.998614
				1.00073
				0.999803
				1.00197
				1.0012
				1.00317
				1.00264
				1.00422
				1.00395
				1.00503
				1.00502
				1.00558
				1.00579
				1.00586
				1.00626
				1.00586
				1.00641
				1.00558
				1.00626
				1.00503
				1.00579
				1.00422
				1.00502
				1.00317
				1.00395
				1.00197
				1.00264
				1.00073
				1.0012
				0.9996
				0.999803
				0.998722
				0.998614
				0.998161
				0.997763
				0.997888
				0.997261
				0.997759
				0.996976
				0.997414
				0.996596
				0.995967
				0.995443
				0.992408
				0.992304
				0.988444
				0.987215
				0.990097
				0.99185
				0.993786
				0.993688
				0.996956
				0.996749
				0.998282
				0.998395
				0.998763
				0.998939
				0.999069
				0.999198
				0.999425
				0.999478
				0.999907
				0.999863
				1.00052
				1.00037
				1.00122
				1.00096
				1.00193
				1.0016
				1.00258
				1.00221
				1.00313
				1.00275
				1.00354
				1.00318
				1.00381
				1.00348
				1.00394
				1.00366
				1.00394
				1.00372
				1.00381
				1.00366
				1.00354
				1.00348
				1.00313
				1.00318
				1.00258
				1.00275
				1.00193
				1.00221
				1.00122
				1.0016
				1.00052
				1.00096
				0.999907
				1.00037
				0.999425
				0.999863
				0.999069
				0.999478
				0.998763
				0.999198
				0.998282
				0.998939
				0.996956
				0.998395
				0.993786
				0.996749
				0.990097
				0.993688
				0.994505
				0.99267
				0.996524
				0.994315
				0.998301
				0.997052
				0.999188
				0.998625
				0.999685
				0.999324
				1.00009
				0.999762
				1.00048
				1.00015
				1.00087
				1.00055
				1.00127
				1.00097
				1.00164
				1.00139
				1.00198
				1.00179
				1.00226
				1.00214
				1.00248
				1.00242
				1.00263
				1.00263
				1.00273
				1.00277
				1.00277
				1.00284
				1.00277
				1.00287
				1.00273
				1.00284
				1.00263
				1.00277
				1.00248
				1.00263
				1.00226
				1.00242
				1.00198
				1.00214
				1.00164
				1.00179
				1.00127
				1.00139
				1.00087
				1.00097
				1.00048
				1.00055
				1.00009
				1.00015
				0.999685
				0.999762
				0.999188
				0.999324
				0.998301
				0.998625
				0.996524
				0.997052
				0.994505
				0.994315
			</DataArray>
			<DataArray type="Float64" Name="mach-number" Format="ascii">
				0.0351797
				0.0524491
				0.0948256
				0.0835444
				0.168087
				0.146316
				0.251913
				0.222754
				0.341121
				0.306453
				0.428103
				0.390625
				0.502588
				0.466674
				0.552288
				0.524284
				0.566935
				0.553522
				0.544589
				0.549357
				0.492344
				0.514429
				0.420119
				0.456243
				0.335847
				0.38267
				0.244729
				0.300101
				0.150352
				0.214191
				0.0585783
				0.134014
				0.0585784
				0.0918362
				0.150353
				0.134014
				0.24473
				0.214191
				0.335847
				0.300101
				0.420119
				0.38267
				0.492344
				0.456243
				0.544589
				0.514429
				0.566935
				0.549357
				0.552288
				0.553522
				0.502588
				0.524284
				0.428103
				0.466674
				0.341121
				0.390625
				0.251913
				0.306453
				0.168087
				0.222754
				0.0948256
				0.146316
				0.0351797
				0.0835444
				0.130634
				0.0899057
				0.173494
				0.1162
				0.235934
				0.175255
				0.303131
				0.246567
				0.367924
				0.320472
				0.425081
				0.390342
				0.469323
				0.449813
				0.495233
				0.492114
				0.498826
				0.51093
				0.479884
				0.503186
				0.44234
				0.471144
				0.392223
				0.420845
				0.335804
				0.359037
				0.279462
				0.291886
				0.231045
				0.22599
				0.201465
				0.171907
				0.201465
				0.14905
				0.231045
				0.171907
				0.279462
				0.22599
				0.335804
				0.291887
				0.392223
				0.359037
				0.442341
				0.420845
				0.479884
				0.471144
				0.498826
				0.503186
				0.495233
				0.51093
				0.469323
				0.492114
				0.425081
				0.449813
				0.367924
				0.390342
				0.303131
				0.320472
				0.235934
				0.246567
				0.173494
				0.175255
				0.130634
				0.1162
				0.172519
				0.195637
				0.212005
				0.216658
				0.268333
				0.26437
				0.3245
				0.316297
				0.373629
				0.362233
				0.412984
				0.399552
				0.440564
				0.42723
				0.454182
				0.443887
				0.452251
				0.447948
				0.435284
				0.438935
				0.406337
				0.418526
				0.369994
				0.390279
				0.331234
				0.358565
				0.295039
				0.327746
				0.266493
				0.301878
				0.250528
				0.284552
				0.250528
				0.278437
				0.266493
				0.284552
				0.295039
				0.301878
				0.331234
				0.327746
				0.369994
				0.358565
				0.406337
				0.390279
				0.435284
				0.418526
				0.452251
				0.438935
				0.454182
				0.447948
				0.440564
				0.443887
				0.412984
				0.42723
				0.373629
				0.399552
				0.3245
				0.362233
				0.268333
				0.316297
				0.212005
				0.26437
				0.172519
				0.216658
				0.260669
				0.234537
				0.292635
				0.253685
				0.332664
				0.295911
				0.365104
				0.338158
				0.388026
				0.37114
				0.403329
				0.394667
				0.412127
				0.409996
				0.414504
				0.417538
				0.410424
				0.41712
				0.400604
				0.409011
				0.386747
				0.39462
				0.371128
				0.376371
				0.356003
				0.357063
				0.343208
				0.33929
				0.334037
				0.325128
				0.329271
				0.31605
				0.329271
				0.312928
				0.334037
				0.31605
				0.343208
				0.325128
				0.356003
				0.33929
				0.371128
				0.357063
				0.386747
				0.376371
				0.400604
				0.39462
				0.410424
				0.409011
				0.414504
				0.41712
				0.412127
				0.417538
				0.403329
				0.409996
				0.388026
				0.394667
				0.365104
				0.37114
				0.332664
				0.338158
				0.292635
				0.295911
				0.260669
				0.253685
				0.290562
				0.300891
				0.318288
				0.315784
				0.35064
				0.345444
				0.373595
				0.369567
				0.387345
				0.383984
				0.395083
				0.391986
				0.398539
				0.396027
				0.398254
				0.396962
				0.394494
				0.395019
				0.387862
				0.390517
				0.379421
				0.38416
				0.370458
				0.376944
				0.362151
				0.369887
				0.355367
				0.3638
				0.350636
				0.359203
				0.34822
				0.35637
				0.34822
				0.355416
				0.350636
				0.35637
				0.355367
				0.359203
				0.362151
				0.3638
				0.370458
				0.369887
				0.379421
				0.376944
				0.387862
				0.38416
				0.394494
				0.390517
				0.398254
				0.395019
				0.398539
				0.396962
				0.395083
				0.396027
				0.387345
				0.391986
				0.373595
				0.383984
				0.35064
				0.369567
				0.318288
				0.345444
				0.290562
				0.315784
				0.335664
				0.322613
				0.354156
				0.335038
				0.372632
				0.358729
				0.3827
				0.376031
				0.387051
				0.384686
				0.38873
				0.388507
				0.38888
				0.38983
				0.387805
				0.389437
				0.385663
				0.387576
				0.382722
				0.3845
				0.379384
				0.380628
				0.376083
				0.376498
				0.373175
				0.37262
				0.370889
				0.369372
				0.369336
				0.366972
				0.368556
				0.365514
				0.368556
				0.365027
				0.369336
				0.365514
				0.370889
				0.366972
				0.373175
				0.369372
				0.376083
				0.37262
				0.379384
				0.376498
				0.382722
				0.380628
				0.385663
				0.3845
				0.387805
				0.387576
				0.38888
				0.389437
				0.38873
				0.38983
				0.387051
				0.388507
				0.3827
				0.384686
				0.372632
				0.376031
				0.354156
				0.358729
				0.335664
				0.335038
				0.350055
				0.354699
				0.364169
				0.361901
				0.377354
				0.374494
				0.383555
				0.382069
				0.385582
				0.38477
				0.385946
				0.385418
				0.385489
				0.385238
				0.384429
				0.384535
				0.38288
				0.383401
				0.381003
				0.38194
				0.379016
				0.38031
				0.377135
				0.378692
				0.375527
				0.377244
				0.37429
				0.376071
				0.373461
				0.375222
				0.373049
				0.374713
				0.373049
				0.374544
				0.373461
				0.374713
				0.37429
				0.375222
				0.375527
				0.376071
				0.377135
				0.377244
				0.379016
				0.378692
				0.381003
				0.38031
				0.38288
				0.38194
				0.384429
				0.383401
				0.385489
				0.384535
				0.385946
				0.385238
				0.385582
				0.385418
				0.383555
				0.38477
				0.377354
				0.382069
				0.364169
				0.374494
				0.350055
				0.361901
				0.37162
				0.365491
				0.37686
				0.370218
				0.381321
				0.378212
				0.383001
				0.38257
				0.383244
				0.383719
				0.382998
				0.383668
				0.382529
				0.38322
				0.381902
				0.382557
				0.381155
				0.381728
				0.380345
				0.380783
				0.379544
				0.379802
				0.378819
				0.378871
				0.378215
				0.378061
				0.377757
				0.377418
				0.377452
				0.376958
				0.377301
				0.376684
				0.377301
				0.376593
				0.377452
				0.376684
				0.377757
				0.376958
				0.378215
				0.377418
				0.378819
				0.378061
				0.379544
				0.378871
				0.380345
				0.379802
				0.381155
				0.380783
				0.381902
				0.381728
				0.382529
				0.382557
				0.382998
				0.38322
				0.383244
				0.383668
				0.383001
				0.383719
				0.381321
				0.38257
				0.37686
				0.378212
				0.37162
				0.370218
			</DataArray>
			<DataArray type="Float64" Name="pressure" Format="ascii">
				4.73661
				4.77241
				4.70143
				4.75842
				4.62976
				4.71558
				4.521
				4.64173
				4.38093
				4.53755
				4.22847
				4.41348
				4.09847
				4.2938
				4.03729
				4.21503
				4.0854
				4.21533
				4.25245
				4.3149
				4.51055
				4.50316
				4.81323
				4.74682
				5.11415
				5.00645
				5.37461
				5.24651
				5.56499
				5.43856
				5.66525
				5.56207
				5.66525
				5.60463
				5.56499
				5.56207
				5.37461
				5.43856
				5.11415
				5.2465
				4.81323
				5.00645
				4.51055
				4.74682
				4.25245
				4.50316
				4.0854
				4.3149
				4.03729
				4.21533
				4.09847
				4.21503
				4.22847
				4.2938
				4.38093
				4.41349
				4.521
				4.53755
				4.62976
				4.64173
				4.70143
				4.71558
				4.73661
				4.75842
				4.86668
				4.84413
				4.85128
				4.83395
				4.81843
				4.8018
				4.76573
				4.74537
				4.69578
				4.66615
				4.62022
				4.57291
				4.55943
				4.48394
				4.53774
				4.42626
				4.57341
				4.42821
				4.66802
				4.50459
				4.80558
				4.64634
				4.96171
				4.82678
				5.1129
				5.01541
				5.24073
				5.18639
				5.3324
				5.32079
				5.38009
				5.4061
				5.38009
				5.43529
				5.3324
				5.4061
				5.24073
				5.32079
				5.1129
				5.18639
				4.96171
				5.01541
				4.80558
				4.82678
				4.66802
				4.64634
				4.57341
				4.50459
				4.53774
				4.42821
				4.55943
				4.42626
				4.62022
				4.48394
				4.69578
				4.57291
				4.76573
				4.66615
				4.81843
				4.74537
				4.85128
				4.8018
				4.86668
				4.83395
				4.89367
				4.9205
				4.88153
				4.91633
				4.85596
				4.90299
				4.81797
				4.87866
				4.77201
				4.84373
				4.72632
				4.80376
				4.69322
				4.76869
				4.68687
				4.75051
				4.71723
				4.75955
				4.78382
				4.79967
				4.87549
				4.86578
				4.97625
				4.94629
				5.07129
				5.02818
				5.14978
				5.10072
				5.20499
				5.15659
				5.23335
				5.1915
				5.23335
				5.20334
				5.20499
				5.1915
				5.14978
				5.15659
				5.07129
				5.10072
				4.97625
				5.02818
				4.87549
				4.94629
				4.78382
				4.86578
				4.71723
				4.79967
				4.68687
				4.75955
				4.69322
				4.75051
				4.72632
				4.76869
				4.77201
				4.80376
				4.81797
				4.84373
				4.85596
				4.87866
				4.88153
				4.90299
				4.89368
				4.91633
				4.93314
				4.91106
				4.92956
				4.90898
				4.92082
				4.90148
				4.90616
				4.88775
				4.88802
				4.8695
				4.87127
				4.85035
				4.86141
				4.83559
				4.86318
				4.83146
				4.87906
				4.843
				4.90789
				4.87132
				4.94513
				4.91271
				4.98479
				4.96033
				5.02144
				5.00698
				5.05122
				5.04713
				5.0719
				5.07735
				5.08244
				5.09592
				5.08244
				5.10216
				5.0719
				5.09592
				5.05122
				5.07735
				5.02144
				5.04713
				4.98479
				5.00698
				4.94513
				4.96033
				4.90789
				4.91271
				4.87906
				4.87132
				4.86318
				4.843
				4.86141
				4.83146
				4.87127
				4.83559
				4.88802
				4.85035
				4.90616
				4.8695
				4.92082
				4.88775
				4.92956
				4.90148
				4.93314
				4.90898
				4.91556
				4.93356
				4.91647
				4.93347
				4.91536
				4.93215
				4.9112
				4.92805
				4.90544
				4.92164
				4.90057
				4.91526
				4.89942
				4.91148
				4.90436
				4.91237
				4.91631
				4.91912
				4.93423
				4.9316
				4.95551
				4.94822
				4.97705
				4.96648
				4.99624
				4.98393
				5.01141
				4.9987
				5.02173
				5.00969
				5.02693
				5.0164
				5.02693
				5.01864
				5.02173
				5.01639
				5.01141
				5.00969
				4.99624
				4.9987
				4.97705
				4.98393
				4.95551
				4.96648
				4.93423
				4.94822
				4.91631
				4.9316
				4.90436
				4.91912
				4.89942
				4.91237
				4.90057
				4.91148
				4.90544
				4.91526
				4.9112
				4.92164
				4.91536
				4.92805
				4.91647
				4.93215
				4.91556
				4.93347
				4.93413
				4.92023
				4.93506
				4.92244
				4.93536
				4.92626
				4.93432
				4.92817
				4.93285
				4.92811
				4.93227
				4.92761
				4.93349
				4.92819
				4.93704
				4.93098
				4.94294
				4.93651
				4.95065
				4.94457
				4.95919
				4.95421
				4.96752
				4.96416
				4.97476
				4.97326
				4.98041
				4.98072
				4.98422
				4.98614
				4.98612
				4.9894
				4.98612
				4.99048
				4.98422
				4.9894
				4.98041
				4.98614
				4.97476
				4.98072
				4.96752
				4.97326
				4.95919
				4.96416
				4.95065
				4.95421
				4.94294
				4.94457
				4.93704
				4.93651
				4.93349
				4.93098
				4.93227
				4.92819
				4.93285
				4.92761
				4.93432
				4.92811
				4.93536
				4.92817
				4.93506
				4.92626
				4.93413
				4.92244
				4.92637
				4.93492
				4.93059
				4.93584
				4.93468
				4.93757
				4.93686
				4.93879
				4.93812
				4.93951
				4.93953
				4.94044
				4.94169
				4.94206
				4.94488
				4.94456
				4.94906
				4.94796
				4.95388
				4.95204
				4.95882
				4.95642
				4.96337
				4.96065
				4.96718
				4.96437
				4.97005
				4.96734
				4.97194
				4.96945
				4.97287
				4.97071
				4.97287
				4.97113
				4.97194
				4.97071
				4.97005
				4.96945
				4.96718
				4.96734
				4.96337
				4.96437
				4.95882
				4.96065
				4.95388
				4.95642
				4.94906
				4.95204
				4.94488
				4.94796
				4.94169
				4.94456
				4.93953
				4.94206
				4.93812
				4.94044
				4.93686
				4.93951
				4.93468
				4.93879
				4.93059
				4.93757
				4.92637
				4.93584
				4.93093
				4.92577
				4.93396
				4.92862
				4.93784
				4.93413
				4.94109
				4.93854
				4.94375
				4.94159
				4.94623
				4.94411
				4.94874
				4.94657
				4.95134
				4.94918
				4.95399
				4.95199
				4.95656
				4.95487
				4.95889
				4.95762
				4.96084
				4.96005
				4.96237
				4.96203
				4.96346
				4.96351
				4.96415
				4.96451
				4.96449
				4.96508
				4.96449
				4.96526
				4.96415
				4.96508
				4.96346
				4.96451
				4.96237
				4.96351
				4.96084
				4.96203
				4.95889
				4.96005
				4.95656
				4.95762
				4.95399
				4.95487
				4.95134
				4.95199
				4.94874
				4.94918
				4.94623
				4.94657
				4.94375
				4.94411
				4.94109
				4.94159
				4.93784
				4.93854
				4.93396
				4.93413
				4.93093
				4.92862
			</DataArray>
			<DataArray type="Float64" Name="velocity" NumberOfComponents="3" Format="ascii">
				0.0602376 -0.0719808 0
				0.140036 -4.71174e-08 0
				0.12914 -0.216924 0
				0.180012 -0.131305 0
				0.270178 -0.354654 0
				0.294227 -0.254605 0
				0.48018 -0.45996 0
				0.470841 -0.355453 0
				0.741431 -0.501479 0
				0.694645 -0.411852 0
				1.01931 -0.454713 0
				0.941501 -0.401669 0
				1.26492 -0.311717 0
				1.17562 -0.311777 0
				1.42395 -0.0884544 0
				1.35326 -0.145332 0
				1.455 0.173072 0
				1.43357 0.0726513 0
				1.35142 0.416194 0
				1.3968 0.297529 0
				1.14394 0.591946 0
				1.25559 0.481091 0
				0.880728 0.673137 0
				1.04607 0.5898 0
				0.609274 0.653391 0
				0.810539 0.610142 0
				0.369428 0.541365 0
				0.58695 0.544649 0
				0.191938 0.35615 0
				0.405503 0.406715 0
				0.0978305 0.124087 0
				0.287918 0.216863 0
				0.0978305 -0.124087 0
				0.247268 -1.47732e-07 0
				0.191938 -0.35615 0
				0.287918 -0.216863 0
				0.369429 -0.541366 0
				0.405504 -0.406715 0
				0.609274 -0.653391 0
				0.58695 -0.544649 0
				0.880728 -0.673137 0
				0.810539 -0.610142 0
				1.14394 -0.591946 0
				1.04607 -0.5898 0
				1.35142 -0.416194 0
				1.25559 -0.481091 0
				1.455 -0.173072 0
				1.3968 -0.297529 0
				1.42395 0.0884544 0
				1.43357 -0.0726513 0
				1.26492 0.311717 0
				1.35326 0.145332 0
				1.01931 0.454713 0
				1.17562 0.311777 0
				0.741431 0.501479 0
				0.941501 0.401669 0
				0.48018 0.45996 0
				0.694645 0.411853 0
				0.270178 0.354654 0
				0.470841 0.355453 0
				0.12914 0.216924 0
				0.294227 0.254605 0
				0.0602376 0.0719806 0
				0.180012 0.131305 0
				0.344491 -0.05535 0
				0.24021 -5.43989e-08 0
				0.435935 -0.15392 0
				0.285845 -0.120194 0
				0.584964 -0.22412 0
				0.408898 -0.22399 0
				0.758659 -0.258781 0
				0.581908 -0.296906 0
				0.935575 -0.251936 0
				0.780091 -0.325452 0
				1.09715 -0.199515 0
				0.980113 -0.299332 0
				1.22323 -0.102774 0
				1.15619 -0.215192 0
				1.29313 0.027994 0
				1.28047 -0.0795319 0
				1.2923 0.170886 0
				1.32811 0.088022 0
				1.22163 0.296984 0
				1.28815 0.255455 0
				1.09898 0.381555 0
				1.17172 0.388615 0
				0.950674 0.411763 0
				1.00658 0.463927 0
				0.802386 0.386583 0
				0.824749 0.472602 0
				0.674648 0.313085 0
				0.65447 0.417686 0
				0.582005 0.202955 0
				0.51761 0.309897 0
				0.53353 0.0701957 0
				0.429474 0.164632 0
				0.53353 -0.0701958 0
				0.399099 -6.53345e-08 0
				0.582005 -0.202955 0
				0.429474 -0.164632 0
				0.674648 -0.313085 0
				0.51761 -0.309897 0
				0.802387 -0.386583 0
				0.654471 -0.417687 0
				0.950674 -0.411763 0
				0.824749 -0.472603 0
				1.09898 -0.381555 0
				1.00658 -0.463927 0
				1.22163 -0.296984 0
				1.17172 -0.388615 0
				1.2923 -0.170886 0
				1.28815 -0.255454 0
				1.29313 -0.027994 0
				1.32811 -0.0880219 0
				1.22323 0.102774 0
				1.28047 0.0795318 0
				1.09715 0.199515 0
				1.15619 0.215193 0
				0.935576 0.251936 0
				0.980113 0.299332 0
				0.758659 0.258781 0
				0.780091 0.325452 0
				0.584964 0.22412 0
				0.581908 0.296906 0
				0.435935 0.15392 0
				0.408898 0.223991 0
				0.344491 0.0553498 0
				0.285844 0.120194 0
				0.457904 -0.0457952 0
				0.52192 1.03674e-07 0
				0.550372 -0.123342 0
				0.57194 -0.0773475 0
				0.690621 -0.16977 0
				0.69029 -0.126852 0
				0.837145 -0.1829 0
				0.824072 -0.14451 0
				0.969598 -0.164656 0
				0.945381 -0.13627 0
				1.07786 -0.117419 0
				1.04556 -0.105538 0
				1.15365 -0.0450566 0
				1.12021 -0.0543079 0
				1.18847 0.0446038 0
				1.16389 0.0134846 0
				1.17683 0.137698 0
				1.1711 0.0891517 0
				1.1216 0.216714 0
				1.14085 0.159391 0
				1.03519 0.266919 0
				1.07994 0.210661 0
				0.934807 0.281085 0
				1.00126 0.234267 0
				0.836861 0.259565 0
				0.918976 0.228122 0
				0.75403 0.207776 0
				0.844912 0.195312 0
				0.694788 0.133659 0
				0.787299 0.141734 0
				0.664062 0.0460511 0
				0.751085 0.0742981 0
				0.664062 -0.0460512 0
				0.738765 -4.35735e-08 0
				0.694788 -0.133659 0
				0.751085 -0.0742981 0
				0.75403 -0.207776 0
				0.787299 -0.141734 0
				0.836861 -0.259565 0
				0.844912 -0.195312 0
				0.934807 -0.281085 0
				0.918976 -0.228122 0
				1.03519 -0.266919 0
				1.00126 -0.234267 0
				1.1216 -0.216714 0
				1.07994 -0.210661 0
				1.17683 -0.137698 0
				1.14085 -0.159391 0
				1.18847 -0.0446038 0
				1.1711 -0.0891517 0
				1.15365 0.0450566 0
				1.16389 -0.0134846 0
				1.07786 0.117419 0
				1.12021 0.0543079 0
				0.969598 0.164656 0
				1.04556 0.105538 0
				0.837145 0.1829 0
				0.945381 0.13627 0
				0.690621 0.16977 0
				0.824072 0.14451 0
				0.550372 0.123342 0
				0.69029 0.126852 0
				0.457904 0.0457953 0
				0.57194 0.0773474 0
				0.692505 -0.0275486 0
				0.624075 -9.11584e-09 0
				0.77313 -0.0657521 0
				0.67153 -0.0573397 0
				0.875959 -0.0748344 0
				0.778492 -0.0885324 0
				0.960234 -0.0658354 0
				0.887765 -0.0924974 0
				1.02012 -0.047376 0
				0.97426 -0.0786292 0
				1.0601 -0.0216907 0
				1.03644 -0.052567 0
				1.0827 0.0101833 0
				1.07685 -0.0168535 0
				1.08786 0.045498 0
				1.09595 0.0258193 0
				1.07553 0.0791807 0
				1.09299 0.0704622 0
				1.04815 0.105247 0
				1.06906 0.109846 0
				1.01102 0.119132 0
				1.02896 0.136874 0
				0.970696 0.119122 0
				0.980327 0.147238 0
				0.933053 0.1062 0
				0.931184 0.140326 0
				0.902272 0.0829573 0
				0.88798 0.118374 0
				0.880806 0.0525275 0
				0.854955 0.0850423 0
				0.869851 0.0179564 0
				0.834446 0.0443166 0
				0.869851 -0.0179564 0
				0.827513 -1.26518e-08 0
				0.880806 -0.0525275 0
				0.834446 -0.0443166 0
				0.902272 -0.0829573 0
				0.854955 -0.0850423 0
				0.933053 -0.1062 0
				0.88798 -0.118374 0
				0.970697 -0.119122 0
				0.931184 -0.140326 0
				1.01102 -0.119132 0
				0.980327 -0.147238 0
				1.04815 -0.105247 0
				1.02896 -0.136874 0
				1.07553 -0.0791807 0
				1.06906 -0.109846 0
				1.08786 -0.0454979 0
				1.09299 -0.0704622 0
				1.0827 -0.0101833 0
				1.09595 -0.0258193 0
				1.0601 0.0216907 0
				1.07685 0.0168535 0
				1.02012 0.0473761 0
				1.03644 0.052567 0
				0.960234 0.0658354 0
				0.97426 0.0786292 0
				0.875959 0.0748344 0
				0.887765 0.0924974 0
				0.77313 0.0657521 0
				0.778492 0.0885324 0
				0.692505 0.0275485 0
				0.67153 0.0573396 0
				0.770136 -0.0197925 0
				0.797786 2.13622e-09 0
				0.840606 -0.0447617 0
				0.835476 -0.0315503 0
				0.923715 -0.0458937 0
				0.911204 -0.0396545 0
				0.983128 -0.0348962 0
				0.973237 -0.0313928 0
				1.01882 -0.0199788 0
				1.01042 -0.0192619 0
				1.03884 -0.00282466 0
				1.03103 -0.00623129 0
				1.04756 0.0162199 0
				1.04133 0.00812431 0
				1.04634 0.0358441 0
				1.04347 0.0235054 0
				1.03598 0.0535079 0
				1.03806 0.0383242 0
				1.01826 0.066291 0
				1.02603 0.050269 0
				0.996197 0.0720801 0
				1.00938 0.0572776 0
				0.973272 0.0702567 0
				0.990804 0.0583266 0
				0.952459 0.0615682 0
				0.972945 0.0535931 0
				0.935772 0.0475378 0
				0.95777 0.0440896 0
				0.924296 0.0298802 0
				0.946451 0.0311515 0
				0.918488 0.0101782 0
				0.939536 0.0160781 0
				0.918488 -0.0101783 0
				0.937218 -1.07563e-08 0
				0.924296 -0.0298803 0
				0.939536 -0.0160781 0
				0.935772 -0.0475379 0
				0.946451 -0.0311515 0
				0.952459 -0.0615682 0
				0.95777 -0.0440896 0
				0.973272 -0.0702567 0
				0.972945 -0.0535932 0
				0.996197 -0.0720801 0
				0.990804 -0.0583266 0
				1.01826 -0.066291 0
				1.00938 -0.0572776 0
				1.03598 -0.0535079 0
				1.02603 -0.050269 0
				1.04634 -0.035844 0
				1.03806 -0.0383241 0
				1.04756 -0.0162199 0
				1.04347 -0.0235054 0
				1.03884 0.00282466 0
				1.04133 -0.00812431 0
				1.01882 0.0199788 0
				1.03103 0.00623129 0
				0.983128 0.0348963 0
				1.01042 0.0192619 0
				0.923715 0.0458937 0
				0.973237 0.0313928 0
				0.840606 0.0447617 0
				0.911204 0.0396545 0
				0.770136 0.0197925 0
				0.835476 0.0315503 0
				0.887279 -0.0117452 0
				0.85341 -4.45927e-08 0
				0.934175 -0.0230073 0
				0.884928 -0.0220207 0
				0.981317 -0.0179008 0
				0.945386 -0.0254239 0
				1.00712 -0.00915915 0
				0.989821 -0.0171746 0
				1.01828 -0.00180915 0
				1.01213 -0.0077155 0
				1.02256 0.00492144 0
				1.02197 0.000968161 0
				1.02289 0.011671 0
				1.02532 0.00952245 0
				1.02005 0.0181371 0
				1.0242 0.0180044 0
				1.01446 0.0235036 0
				1.01928 0.0256829 0
				1.00685 0.0269061 0
				1.01125 0.0314599 0
				0.998281 0.0278158 0
				1.00123 0.0343976 0
				0.989868 0.026198 0
				0.990649 0.0340997 0
				0.982507 0.0224191 0
				0.980803 0.030768 0
				0.976751 0.017033 0
				0.972623 0.0249999 0
				0.972858 0.0105989 0
				0.966615 0.0175202 0
				0.970907 0.00359284 0
				0.962983 0.00900052 0
				0.970907 -0.00359285 0
				0.961772 -7.94927e-09 0
				0.972858 -0.0105989 0
				0.962983 -0.00900053 0
				0.976751 -0.017033 0
				0.966615 -0.0175202 0
				0.982507 -0.0224191 0
				0.972623 -0.0249999 0
				0.989868 -0.026198 0
				0.980803 -0.030768 0
				0.998281 -0.0278158 0
				0.990649 -0.0340997 0
				1.00685 -0.0269061 0
				1.00123 -0.0343976 0
				1.01446 -0.0235036 0
				1.01125 -0.0314599 0
				1.02005 -0.0181371 0
				1.01928 -0.0256829 0
				1.02289 -0.011671 0
				1.0242 -0.0180044 0
				1.02256 -0.00492144 0
				1.02532 -0.00952245 0
				1.01828 0.00180917 0
				1.02197 -0.000968158 0
				1.00712 0.00915916 0
				1.01213 0.00771552 0
				0.981317 0.0179008 0
				0.989821 0.0171746 0
				0.934175 0.0230073 0
				0.945386 0.0254239 0
				0.887279 0.0117451 0
				0.884928 0.0220206 0
				0.923859 -0.00866396 0
				0.936142 2.14934e-08 0
				0.959633 -0.0165622 0
				0.95426 -0.0133577 0
				0.99328 -0.0121853 0
				0.986121 -0.0136984 0
				1.00921 -0.00556456 0
				1.00543 -0.00783345 0
				1.01445 -0.000405107 0
				1.01236 -0.00289803 0
				1.01539 0.00394378 0
				1.01403 0.000865804 0
				1.01421 0.00797878 0
				1.01358 0.00428644 0
				1.01146 0.0115897 0
				1.01177 0.0074816 0
				1.00747 0.0143916 0
				1.00886 0.0101862 0
				1.00264 0.0159932 0
				1.0051 0.0120496 0
				0.997549 0.0161871 0
				1.00093 0.0128215 0
				0.992747 0.0150154 0
				0.996795 0.0124477 0
				0.988657 0.0127113 0
				0.993106 0.0110584 0
				0.985517 0.00958607 0
				0.990123 0.00888677 0
				0.983421 0.00593732 0
				0.987969 0.00618294 0
				0.982377 0.00200814 0
				0.98668 0.00316338 0
				0.982377 -0.00200815 0
				0.986252 -1.89974e-09 0
				0.983421 -0.00593731 0
				0.98668 -0.00316338 0
				0.985517 -0.00958608 0