<VTKFile type="UnstructuredGrid" version="0.1" byte_order="LittleEndian">
<UnstructuredGrid>
	<Piece NumberOfPoints="288" NumberOfCells="512">
		<CellData Scalars="density" Vectors="velocity">
			<DataArray type="Float64" Name="density" Format="ascii">
				0.929054
				0.9363
				0.925745
				0.9356
				0.917883
				0.932552
				0.904602
				0.925478
				0.886578
				0.913799
				0.866585
				0.898802
				0.84988
				0.883925
				0.843609
				0.874627
				0.853978
				0.876774
				0.882092
				0.893431
				0.92306
				0.922768
				0.969421
				0.959521
				1.01425
				0.99777
				1.05221
				1.03248
				1.07951
				1.05985
				1.09374
				1.07729
				1.09374
				1.08327
				1.07951
				1.07729
				1.05221
				1.05985
				1.01425
				1.03248
				0.969421
				0.99777
				0.92306
				0.959521
				0.882092
				0.922768
				0.853978
				0.893431
				0.843609
				0.876774
				0.84988
				0.874627
				0.866585
				0.883925
				0.886578
				0.898802
				0.904602
				0.913799
				0.917883
				0.925478
				0.925745
				0.932552
				0.929054
				0.9356
				0.955241
				0.950157
				0.956684
				0.950486
				0.957182
				0.950105
				0.954524
				0.946709
				0.94836
				0.939427
				0.940256
				0.929197
				0.933351
				0.918657
				0.93152
				0.911967
				0.937702
				0.913607
				0.952226
				0.925926
				0.972713
				0.947504
				0.995565
				0.974254
				1.01742
				1.00168
				1.03572
				1.02614
				1.04875
				1.04514
				1.0555
				1.05709
				1.0555
				1.06117
				1.04875
				1.05709
				1.03572
				1.04514
				1.01742
				1.02614
				0.995565
				1.00168
				0.972713
				0.974254
				0.952226
				0.947504
				0.937702
				0.925926
				0.93152
				0.913607
				0.933351
				0.911967
				0.940256
				0.918657
				0.94836
				0.929197
				0.954524
				0.939427
				0.957182
				0.946709
				0.956684
				0.950105
				0.955241
				0.950486
				0.962982
				0.968053
				0.965687
				0.970091
				0.967937
				0.974066
				0.967462
				0.976319
				0.964375
				0.975424
				0.960125
				0.972303
				0.956877
				0.96888
				0.957015
				0.967302
				0.962198
				0.969325
				0.972427
				0.975645
				0.986073
				0.985571
				1.00081
				0.997436
				1.01454
				1.00937
				1.02577
				1.01987
				1.03362
				1.02791
				1.03764
				1.03291
				1.03764
				1.03461
				1.03362
				1.03291
				1.02577
				1.02791
				1.01454
				1.01987
				1.00081
				1.00937
				0.986073
				0.997436
				0.972427
				0.985571
				0.962198
				0.975645
				0.957016
				0.969325
				0.956877
				0.967302
				0.960125
				0.96888
				0.964375
				0.972303
				0.967462
				0.975424
				0.967937
				0.976319
				0.965687
				0.974066
				0.962983
				0.970091
				0.977113
				0.971167
				0.981732
				0.973787
				0.986467
				0.978872
				0.9884
				0.982257
				0.988001
				0.982988
				0.986785
				0.982159
				0.986052
				0.981162
				0.986733
				0.981269
				0.989299
				0.983396
				0.993636
				0.987795
				0.999118
				0.993963
				1.0049
				1.00093
				1.01021
				1.00769
				1.0145
				1.01345
				1.01748
				1.01777
				1.01899
				1.02042
				1.01899
				1.02131
				1.01748
				1.02042
				1.0145
				1.01777
				1.01021
				1.01345
				1.0049
				1.00769
				0.999118
				1.00093
				0.993636
				0.993963
				0.989299
				0.987795
				0.986733
				0.983396
				0.986052
				0.981269
				0.986785
				0.981162
				0.988001
				0.982159
				0.9884
				0.982988
				0.986467
				0.982257
				0.981732
				0.978872
				0.977113
				0.973787
				0.979003
				0.982574
				0.984083
				0.98537
				0.989181
				0.990562
				0.99166
				0.993816
				0.992299
				0.994715
				0.992321
				0.994598
				0.992545
				0.994441
				0.993478
				0.994773
				0.995328
				0.995861
				0.99798
				0.997723
				1.00107
				1.00015
				1.00418
				1.0028
				1.00693
				1.00532
				1.0091
				1.00744
				1.01057
				1.00902
				1.0113
				1.00998
				1.0113
				1.01031
				1.01057
				1.00998
				1.0091
				1.00902
				1.00693
				1.00744
				1.00418
				1.00532
				1.00107
				1.0028
				0.99798
				1.00015
				0.995328
				0.997723
				0.993478
				0.995861
				0.992545
				0.994773
				0.992321
				0.994441
				0.992299
				0.994598
				0.99166
				0.994715
				0.989181
				0.993816
				0.984083
				0.990562
				0.979003
				0.98537
				0.988492
				0.984427
				0.992436
				0.987258
				0.995974
				0.992332
				0.997407
				0.995454
				0.997741
				0.996592
				0.997858
				0.996958
				0.998119
				0.99723
				0.998667
				0.997719
				0.999531
				0.998557
				1.00065
				0.999731
				1.00188
				1.00112
				1.00307
				1.00254
				1.00411
				1.00384
				1.00492
				1.0049
				1.00547
				1.00567
				1.00574
				1.00614
				1.00574
				1.00629
				1.00547
				1.00614
				1.00492
				1.00567
				1.00411
				1.0049
				1.00307
				1.00384
				1.00188
				1.00254
				1.00065
				1.00112
				0.999531
				0.999731
				0.998667
				0.998557
				0.998119
				0.997719
				0.997858
				0.99723
				0.997741
				0.996958
				0.997407
				0.996592
				0.995974
				0.995454
				0.992436
				0.992332
				0.988492
				0.987258
				0.990169
				0.99192
				0.993846
				0.993751
				0.996993
				0.996794
				0.998293
				0.998416
				0.998749
				0.998934
				0.999032
				0.999168
				0.999368
				0.999426
				0.999831
				0.99979
				1.00043
				1.00028
				1.00111
				1.00086
				1.00181
				1.00148
				1.00246
				1.00209
				1.003
				1.00262
				1.00341
				1.00305
				1.00368
				1.00335
				1.00381
				1.00353
				1.00381
				1.00359
				1.00368
				1.00353
				1.00341
				1.00335
				1.003
				1.00305
				1.00246
				1.00262
				1.00181
				1.00209
				1.00111
				1.00148
				1.00043
				1.00086
				0.99983
				1.00028
				0.999368
				0.99979
				0.999032
				0.999426
				0.998749
				0.999168
				0.998293
				0.998934
				0.996993
				0.998416
				0.993846
				0.996794
				0.990169
				0.993751
				0.994206
				0.992589
				0.996408
				0.994275
				0.998304
				0.997056
				0.999208
				0.998623
				0.999696
				0.999304
				1.0001
				0.999733
				1.00049
				1.00012
				1.00089
				1.00053
				1.0013
				1.00095
				1.00169
				1.00139
				1.00204
				1.00181
				1.00233
				1.00218
				1.00255
				1.00248
				1.00271
				1.0027
				1.00281
				1.00285
				1.00286
				1.00293
				1.00286
				1.00296
				1.00281
				1.00293
				1.00271
				1.00285
				1.00255
				1.0027
				1.00233
				1.00248
				1.00204
				1.00218
				1.00169
				1.00181
				1.0013
				1.00139
				1.00089
				1.00095
				1.00049
				1.00053
				1.0001
				1.00012
				0.999696
				0.999733
				0.999208
				0.999304
				0.998304
				0.998623
				0.996408
				0.997056
				0.994206
				0.994275
			</DataArray>
			<DataArray type="Float64" Name="mach-number" Format="ascii">
				0.0355268
				0.0523115
				0.0948012
				0.0832635
				0.16839
				0.146066
				0.25306
				0.222879
				0.343408
				0.307198
				0.431526
				0.39208
				0.506788
				0.468758
				0.556591
				0.526763
				0.570623
				0.556073
				0.547287
				0.551711
				0.494106
				0.516459
				0.421202
				0.457936
				0.336516
				0.384053
				0.245197
				0.301211
				0.150815
				0.215083
				0.0595133
				0.134799
				0.0595134
				0.092668
				0.150815
				0.134799
				0.245197
				0.215084
				0.336516
				0.301211
				0.421202
				0.384052
				0.494106
				0.457936
				0.547287
				0.516459
				0.570623
				0.551711
				0.556591
				0.556073
				0.506788
				0.526763
				0.431526
				0.468758
				0.343408
				0.392079
				0.25306
				0.307198
				0.16839
				0.222879
				0.0948012
				0.146066
				0.0355267
				0.0832635
				0.130247
				0.0892351
				0.173574
				0.115854
				0.236437
				0.175396
				0.303826
				0.247055
				0.368615
				0.321127
				0.425678
				0.391036
				0.469829
				0.450495
				0.495677
				0.49278
				0.49921
				0.511562
				0.480201
				0.503742
				0.442604
				0.471607
				0.392465
				0.42123
				0.336059
				0.359376
				0.279761
				0.292211
				0.231409
				0.226333
				0.201886
				0.172303
				0.201886
				0.149486
				0.231409
				0.172303
				0.279761
				0.226333
				0.336059
				0.292211
				0.392465
				0.359376
				0.442604
				0.42123
				0.480201
				0.471607
				0.49921
				0.503742
				0.495677
				0.511562
				0.469829
				0.49278
				0.425678
				0.450495
				0.368615
				0.391036
				0.303826
				0.321127
				0.236437
				0.247055
				0.173574
				0.175396
				0.130247
				0.115854
				0.172312
				0.195491
				0.21216
				0.2167
				0.268798
				0.264718
				0.325026
				0.316768
				0.374022
				0.362618
				0.41319
				0.399761
				0.440623
				0.427282
				0.454161
				0.443844
				0.452201
				0.447867
				0.435239
				0.438856
				0.406326
				0.418475
				0.370042
				0.390279
				0.331361
				0.358632
				0.295257
				0.327888
				0.266795
				0.302092
				0.250883
				0.28482
				0.250883
				0.278724
				0.266795
				0.28482
				0.295257
				0.302092
				0.331361
				0.327888
				0.370042
				0.358632
				0.406326
				0.390279
				0.435239
				0.418475
				0.452201
				0.438856
				0.454161
				0.447867
				0.440623
				0.443844
				0.41319
				0.427282
				0.374022
				0.399761
				0.325026
				0.362618
				0.268798
				0.316768
				0.21216
				0.264718
				0.172312
				0.216699
				0.260683
				0.234494
				0.292786
				0.253757
				0.332878
				0.296152
				0.365242
				0.338416
				0.388037
				0.37128
				0.403241
				0.394666
				0.411987
				0.409896
				0.414352
				0.417393
				0.41029
				0.416973
				0.400506
				0.408893
				0.386698
				0.394549
				0.371132
				0.376357
				0.356057
				0.357111
				0.343306
				0.339396
				0.334167
				0.325282
				0.329418
				0.316236
				0.329418
				0.313125
				0.334167
				0.316236
				0.343306
				0.325282
				0.356057
				0.339396
				0.371132
				0.357111
				0.386698
				0.376357
				0.400506
				0.394549
				0.41029
				0.408893
				0.414352
				0.416973
				0.411987
				0.417393
				0.403241
				0.409896
				0.388037
				0.394666
				0.365242
				0.37128
				0.332878
				0.338416
				0.292786
				0.296152
				0.260683
				0.253757
				0.290556
				0.300842
				0.318357
				0.315781
				0.350716
				0.345484
				0.373595
				0.369566
				0.38726
				0.38391
				0.394949
				0.391862
				0.398392
				0.395884
				0.398118
				0.396824
				0.394384
				0.3949
				0.387788
				0.390427
				0.379386
				0.384102
				0.370461
				0.376921
				0.362187
				0.369895
				0.355431
				0.363834
				0.350718
				0.359256
				0.348311
				0.356436
				0.348311
				0.355486
				0.350718
				0.356436
				0.355431
				0.359256
				0.362187
				0.363834
				0.370461
				0.369895
				0.379386
				0.376921
				0.387788
				0.384102
				0.394384
				0.390427
				0.398118
				0.3949
				0.398392
				0.396824
				0.394949
				0.395884
				0.38726
				0.391862
				0.373595
				0.38391
				0.350716
				0.369566
				0.318357
				0.345484
				0.290556
				0.315781
				0.335475
				0.322475
				0.354039
				0.334939
				0.372545
				0.358669
				0.382596
				0.375952
				0.386933
				0.384573
				0.388612
				0.38838
				0.388774
				0.389708
				0.387718
				0.389331
				0.385596
				0.387493
				0.382678
				0.384441
				0.379361
				0.380595
				0.37608
				0.376488
				0.373188
				0.37263
				0.370914
				0.369398
				0.369369
				0.367008
				0.368593
				0.365557
				0.368593
				0.365072
				0.369369
				0.365557
				0.370914
				0.367008
				0.373188
				0.369398
				0.37608
				0.37263
				0.379361
				0.376488
				0.382678
				0.380595
				0.385596
				0.384441
				0.387718
				0.387493
				0.388774
				0.389331
				0.388612
				0.389708
				0.386933
				0.38838
				0.382596
				0.384573
				0.372545
				0.375952
				0.354039
				0.358669
				0.335475
				0.334939
				0.34973
				0.354266
				0.363965
				0.361579
				0.377238
				0.374342
				0.383466
				0.381994
				0.385509
				0.384717
				0.38589
				0.385378
				0.385451
				0.385212
				0.384407
				0.384522
				0.382872
				0.3834
				0.381008
				0.381949
				0.379031
				0.380328
				0.377159
				0.378718
				0.375558
				0.377276
				0.374326
				0.376107
				0.373502
				0.375262
				0.373091
				0.374755
				0.373091
				0.374587
				0.373502
				0.374755
				0.374326
				0.375262
				0.375558
				0.376107
				0.377159
				0.377276
				0.379031
				0.378718
				0.381008
				0.380328
				0.382872
				0.381949
				0.384407
				0.3834
				0.385451
				0.384522
				0.38589
				0.385212
				0.385509
				0.385378
				0.383466
				0.384717
				0.377238
				0.381994
				0.363965
				0.374342
				0.34973
				0.361579
				0.371198
				0.364893
				0.376679
				0.369839
				0.381335
				0.378185
				0.383092
				0.382724
				0.383356
				0.383926
				0.383108
				0.383881
				0.382622
				0.383416
				0.381967
				0.382723
				0.381186
				0.381854
				0.38034
				0.380863
				0.379504
				0.379833
				0.378746
				0.378855
				0.378116
				0.378004
				0.377638
				0.377327
				0.377321
				0.376843
				0.377163
				0.376555
				0.377163
				0.376459
				0.377321
				0.376555
				0.377638
				0.376843
				0.378116
				0.377327
				0.378746
				0.378004
				0.379504
				0.378855
				0.38034
				0.379833
				0.381186
				0.380863
				0.381967
				0.381854
				0.382622
				0.382723
				0.383108
				0.383416
				0.383356
				0.383881
				0.383092
				0.383926
				0.381335
				0.382724
				0.376679
				0.378185
				0.371198
				0.369839
			</DataArray>
			<DataArray type="Float64" Name="pressure" Format="ascii">
				4.71888
				4.7642
				4.68195
				4.75035
				4.60775
				4.70789
				4.49653
				4.63443
				4.3546
				4.53043
				4.20145
				4.40627
				4.07279
				4.28648
				4.01561
				4.20809
				4.07032
				4.20962
				4.24538
				4.31114
				4.51144
				4.50153
				4.82113
				4.74707
				5.12774
				5.00819
				5.39244
				5.24932
				5.58563
				5.4421
				5.68729
				5.56603
				5.68729
				5.60873
				5.58563
				5.56603
				5.39244
				5.4421
				5.12774
				5.24932
				4.82113
				5.00819
				4.51144
				4.74707
				4.24538
				4.50153
				4.07032
				4.31114
				4.01561
				4.20962
				4.07278
				4.20809
				4.20145
				4.28648
				4.3546
				4.40627
				4.49653
				4.53043
				4.60775
				4.63443
				4.68195
				4.70789
				4.71888
				4.75035
				4.86633
				4.84353
				4.85142
				4.83362
				4.81932
				4.80213
				4.76729
				4.74647
				4.69769
				4.66782
				4.62205
				4.57471
				4.56084
				4.48539
				4.53858
				4.42706
				4.57374
				4.42839
				4.66795
				4.50438
				4.80515
				4.64587
				4.9609
				4.82604
				5.11173
				5.01435
				5.23925
				5.18503
				5.3307
				5.31919
				5.37827
				5.40435
				5.37827
				5.43349
				5.3307
				5.40435
				5.23925
				5.31919
				5.11173
				5.18503
				4.9609
				5.01435
				4.80515
				4.82604
				4.66795
				4.64587
				4.57374
				4.50438
				4.53858
				4.42839
				4.56084
				4.42706
				4.62205
				4.48539
				4.69769
				4.57471
				4.76729
				4.66782
				4.81932
				4.74647
				4.85142
				4.80213
				4.86633
				4.83362
				4.89358
				4.92065
				4.88157
				4.91652
				4.85619
				4.90326
				4.8184
				4.87901
				4.7726
				4.84415
				4.72695
				4.80421
				4.69377
				4.76912
				4.68724
				4.75084
				4.71737
				4.7597
				4.78371
				4.79959
				4.87512
				4.86546
				4.9756
				4.94572
				5.07038
				5.02738
				5.14866
				5.09971
				5.20372
				5.15542
				5.232
				5.19024
				5.232
				5.20205
				5.20372
				5.19024
				5.14866
				5.15542
				5.07038
				5.09971
				4.9756
				5.02738
				4.87512
				4.94572
				4.78371
				4.86546
				4.71737
				4.79959
				4.68724
				4.7597
				4.69377
				4.75084
				4.72695
				4.76912
				4.7726
				4.80421
				4.8184
				4.84415
				4.85619
				4.87901
				4.88157
				4.90326
				4.89358
				4.91652
				4.93325
				4.91104
				4.92968
				4.909
				4.92094
				4.9016
				4.90627
				4.88796
				4.88812
				4.86975
				4.87136
				4.8506
				4.86145
				4.83579
				4.86314
				4.83158
				4.8789
				4.84299
				4.90756
				4.87115
				4.94465
				4.91236
				4.98416
				4.95979
				5.02068
				5.00628
				5.05035
				5.04629
				5.07096
				5.0764
				5.08146
				5.09491
				5.08146
				5.10113
				5.07096
				5.09491
				5.05035
				5.0764
				5.02067
				5.04629
				4.98416
				5.00628
				4.94465
				4.95979
				4.90756
				4.91236
				4.8789
				4.87115
				4.86314
				4.84299
				4.86145
				4.83158
				4.87136
				4.83579
				4.88812
				4.8506
				4.90627
				4.86975
				4.92094
				4.88796
				4.92968
				4.9016
				4.93325
				4.909
				4.91554
				4.9336
				4.91651
				4.9335
				4.91545
				4.93217
				4.91129
				4.92805
				4.90548
				4.92161
				4.90056
				4.9152
				4.89935
				4.91138
				4.90421
				4.9122
				4.91605
				4.91887
				4.93385
				4.93125
				4.95502
				4.94776
				4.97645
				4.96593
				4.99555
				4.98329
				5.01065
				4.99799
				5.02093
				5.00893
				5.0261
				5.01561
				5.0261
				5.01785
				5.02093
				5.01561
				5.01065
				5.00893
				4.99555
				4.99799
				4.97645
				4.98329
				4.95502
				4.96593
				4.93385
				4.94776
				4.91605
				4.93125
				4.90421
				4.91887
				4.89935
				4.9122
				4.90056
				4.91138
				4.90548
				4.9152
				4.91129
				4.92161
				4.91545
				4.92805
				4.91651
				4.93217
				4.91554
				4.9335
				4.93426
				4.9203
				4.93515
				4.92252
				4.9354
				4.92635
				4.9343
				4.92823
				4.93277
				4.9281
				4.93212
				4.92754
				4.93327
				4.92804
				4.93673
				4.93074
				4.94254
				4.93619
				4.95016
				4.94415
				4.95863
				4.9537
				4.96689
				4.96358
				4.97409
				4.97262
				4.9797
				4.98003
				4.98349
				4.98542
				4.98539
				4.98866
				4.98539
				4.98973
				4.98349
				4.98866
				4.9797
				4.98542
				4.97409
				4.98003
				4.96689
				4.97262
				4.95863
				4.96358
				4.95016
				4.9537
				4.94254
				4.94415
				4.93673
				4.93619
				4.93327
				4.93074
				4.93212
				4.92804
				4.93277
				4.92754
				4.9343
				4.9281
				4.9354
				4.92823
				4.93515
				4.92635
				4.93426
				4.92252
				4.92685
				4.9355
				4.93099
				4.93634
				4.93494
				4.93791
				4.93695
				4.93894
				4.93806
				4.9395
				4.93933
				4.94028
				4.94136
				4.94176
				4.94443
				4.94413
				4.9485
				4.94741
				4.95323
				4.9514
				4.95811
				4.95571
				4.96261
				4.9599
				4.96639
				4.96359
				4.96924
				4.96654
				4.97113
				4.96865
				4.97206
				4.9699
				4.97206
				4.97031
				4.97113
				4.9699
				4.96924
				4.96865
				4.96639
				4.96654
				4.96261
				4.96359
				4.95811
				4.9599
				4.95323
				4.95571
				4.9485
				4.9514
				4.94443
				4.94741
				4.94136
				4.94413
				4.93933
				4.94176
				4.93806
				4.94028
				4.93695
				4.9395
				4.93494
				4.93894
				4.93099
				4.93791
				4.92685
				4.93634
				4.93023
				4.92665
				4.93376
				4.92929
				4.93795
				4.93441
				4.9412
				4.93852
				4.94379
				4.94142
				4.94624
				4.94387
				4.94878
				4.94633
				4.95145
				4.94899
				4.95419
				4.95188
				4.95685
				4.95487
				4.95926
				4.95776
				4.96128
				4.96032
				4.96286
				4.96241
				4.96399
				4.96398
				4.9647
				4.96505
				4.96505
				4.96566
				4.96505
				4.96586
				4.9647
				4.96566
				4.96399
				4.96505
				4.96286
				4.96398
				4.96128
				4.96241
				4.95926
				4.96032
				4.95685
				4.95776
				4.95419
				4.95487
				4.95145
				4.95188
				4.94878
				4.94899
				4.94624
				4.94633
				4.94379
				4.94387
				4.9412
				4.94142
				4.93795
				4.93852
				4.93376
				4.93441
				4.93023
				4.92929
			</DataArray>
			<DataArray type="Float64" Name="velocity" NumberOfComponents="3" Format="ascii">
				0.0624601 -0.0712307 0
				0.13962 -5.28098e-08 0
				0.131886 -0.215036 0
				0.179983 -0.129948 0
				0.274036 -0.352397 0
				0.295141 -0.252357 0
				0.485801 -0.457875 0
				0.472934 -0.352969 0
				0.749288 -0.499493 0
				0.698028 -0.409603 0
				1.02929 -0.452237 0
				0.946176 -0.399784 0
				1.27601 -0.30806 0
				1.18137 -0.310092 0
				1.43441 -0.0834007 0
				1.35958 -0.143532 0
				1.46314 0.178831 0
				1.43975 0.0747918 0
				1.3567 0.421364 0
				1.40226 0.299917 0
				1.14712 0.595518 0
				1.26014 0.483426 0
				0.88305 0.674869 0
				1.04985 0.591843 0
				0.61176 0.653666 0
				0.813744 0.611799 0
				0.37261 0.540853 0
				0.589732 0.545902 0
				0.195875 0.355523 0
				0.407982 0.40756 0
				0.102236 0.123821 0
				0.290208 0.217291 0
				0.102236 -0.123822 0
				0.249493 -1.41329e-07 0
				0.195876 -0.355524 0
				0.290208 -0.217291 0
				0.372611 -0.540854 0
				0.407983 -0.407561 0
				0.61176 -0.653666 0
				0.589733 -0.545902 0
				0.88305 -0.674869 0
				0.813744 -0.611799 0
				1.14712 -0.595518 0
				1.04985 -0.591843 0
				1.3567 -0.421364 0
				1.26014 -0.483426 0
				1.46314 -0.178831 0
				1.40226 -0.299917 0
				1.43441 0.0834007 0
				1.43975 -0.0747918 0
				1.27601 0.30806 0
				1.35958 0.143532 0
				1.02929 0.452237 0
				1.18137 0.310093 0
				0.749288 0.499493 0
				0.946176 0.399784 0
				0.485801 0.457875 0
				0.698028 0.409604 0
				0.274036 0.352397 0
				0.472934 0.352969 0
				0.131886 0.215036 0
				0.295141 0.252357 0
				0.0624601 0.0712305 0
				0.179982 0.129948 0
				0.343363 -0.0556113 0
				0.238387 -5.91666e-08 0
				0.435944 -0.154423 0
				0.284672 -0.120511 0
				0.586254 -0.224398 0
				0.409123 -0.224286 0
				0.760616 -0.258672 0
				0.583324 -0.296908 0
				0.937543 -0.2516 0
				0.782062 -0.325166 0
				1.0988 -0.199207 0
				0.98212 -0.29897 0
				1.22457 -0.102635 0
				1.15804 -0.214957 0
				1.29427 0.0279909 0
				1.28219 -0.0794384 0
				1.29329 0.170808 0
				1.3297 0.0880961 0
				1.22248 0.296829 0
				1.28955 0.255562 0
				1.09974 0.381295 0
				1.1729 0.388689 0
				0.951458 0.411418 0
				1.00762 0.463905 0
				0.803255 0.386214 0
				0.825764 0.472491 0
				0.67562 0.312765 0
				0.655515 0.417538 0
				0.583063 0.202741 0
				0.518699 0.309767 0
				0.534635 0.0701204 0
				0.430595 0.164558 0
				0.534635 -0.0701205 0
				0.400231 -6.43309e-08 0
				0.583063 -0.20274 0
				0.430595 -0.164558 0
				0.67562 -0.312765 0
				0.518699 -0.309767 0
				0.803255 -0.386214 0
				0.655516 -0.417538 0
				0.951458 -0.411418 0
				0.825764 -0.472491 0
				1.09974 -0.381295 0
				1.00762 -0.463905 0
				1.22248 -0.296829 0
				1.1729 -0.388689 0
				1.29329 -0.170808 0
				1.28955 -0.255562 0
				1.29427 -0.0279909 0
				1.3297 -0.088096 0
				1.22457 0.102635 0
				1.28219 0.0794384 0
				1.0988 0.199207 0
				1.15804 0.214957 0
				0.937543 0.2516 0
				0.98212 0.29897 0
				0.760616 0.258673 0
				0.782062 0.325166 0
				0.586254 0.224398 0
				0.583324 0.296908 0
				0.435944 0.154423 0
				0.409123 0.224286 0
				0.343363 0.055611 0
				0.284672 0.12051 0
				0.4573 -0.0459646 0
				0.521497 1.02319e-07 0
				0.550705 -0.123596 0
				0.571984 -0.0776017 0
				0.691876 -0.169704 0
				0.691174 -0.126985 0
				0.838643 -0.182429 0
				0.825347 -0.144306 0
				0.970744 -0.164003 0
				0.94645 -0.135843 0
				1.07846 -0.116876 0
				1.04615 -0.105124 0
				1.15382 -0.0447971 0
				1.12036 -0.0540806 0
				1.18842 0.0445598 0
				1.16378 0.0134675 0
				1.17672 0.137406 0
				1.1709 0.0889112 0
				1.12156 0.216235 0
				1.14068 0.158974 0
				1.03529 0.266315 0
				1.0799 0.210123 0
				0.935107 0.280431 0
				1.00138 0.233671 0
				0.837375 0.258946 0
				0.919276 0.227539 0
				0.754738 0.207272 0
				0.845386 0.194809 0
				0.695638 0.133332 0
				0.787914 0.141368 0
				0.664986 0.0459376 0
				0.751789 0.0741054 0
				0.664986 -0.0459377 0
				0.7395 -4.33004e-08 0
				0.695638 -0.133332 0
				0.751789 -0.0741054 0
				0.754738 -0.207272 0
				0.787914 -0.141368 0
				0.837375 -0.258946 0
				0.845386 -0.194809 0
				0.935107 -0.280431 0
				0.919276 -0.227539 0
				1.03529 -0.266315 0
				1.00138 -0.233671 0
				1.12156 -0.216235 0
				1.0799 -0.210123 0
				1.17672 -0.137406 0
				1.14068 -0.158974 0
				1.18842 -0.0445598 0
				1.1709 -0.0889112 0
				1.15382 0.0447971 0
				1.16378 -0.0134675 0
				1.07846 0.116876 0
				1.12036 0.0540806 0
				0.970744 0.164003 0
				1.04615 0.105124 0
				0.838643 0.182429 0
				0.94645 0.135843 0
				0.691876 0.169704 0
				0.825347 0.144306 0
				0.550704 0.123596 0
				0.691174 0.126985 0
				0.4573 0.0459647 0
				0.571984 0.0776016 0
				0.69251 -0.0275794 0
				0.623929 -1.02715e-08 0
				0.77351 -0.0657141 0
				0.671689 -0.0573621 0
				0.876527 -0.0745963 0
				0.779128 -0.0883708 0
				0.960609 -0.0654836 0
				0.888474 -0.0921038 0
				1.02016 -0.0470663 0
				0.97466 -0.078165 0
				1.05987 -0.0215157 0
				1.03645 -0.052209 0
				1.08233 0.0101971 0
				1.07659 -0.0166924 0
				1.08746 0.0453606 0
				1.09557 0.0257711 0
				1.07519 0.0789207 0
				1.09262 0.0702339 0
				1.04792 0.104904 0
				1.06878 0.109484 0
				1.01092 0.11875 0
				1.02882 0.136433 0
				0.970737 0.118747 0
				0.980347 0.146774 0
				0.933218 0.105868 0
				0.93136 0.13989 0
				0.902536 0.0826998 0
				0.888291 0.118009 0
				0.88114 0.0523649 0
				0.855369 0.0847815 0
				0.87022 0.0179008 0
				0.834923 0.044181 0
				0.87022 -0.0179009 0
				0.828012 -1.22297e-08 0
				0.88114 -0.0523649 0
				0.834923 -0.0441811 0
				0.902536 -0.0826998 0
				0.855369 -0.0847815 0
				0.933218 -0.105868 0
				0.888291 -0.118009 0
				0.970737 -0.118747 0
				0.93136 -0.13989 0
				1.01092 -0.11875 0
				0.980347 -0.146774 0
				1.04792 -0.104904 0
				1.02882 -0.136433 0
				1.07519 -0.0789206 0
				1.06878 -0.109484 0
				1.08746 -0.0453605 0
				1.09262 -0.0702339 0
				1.08233 -0.0101971 0
				1.09557 -0.0257711 0
				1.05987 0.0215157 0
				1.07659 0.0166924 0
				1.02016 0.0470663 0
				1.03645 0.052209 0
				0.960609 0.0654836 0
				0.97466 0.078165 0
				0.876527 0.0745964 0
				0.888474 0.0921038 0
				0.77351 0.0657141 0
				0.779127 0.0883708 0
				0.69251 0.0275793 0
				0.671689 0.057362 0
				0.770097 -0.0197451 0
				0.797631 1.52277e-09 0
				0.840779 -0.044568 0
				0.83545 -0.0314565 0
				0.923924 -0.0455491 0
				0.911306 -0.0394101 0
				0.983135 -0.034524 0
				0.973239 -0.0310649 0
				1.0186 -0.0196921 0
				1.01023 -0.0189675 0
				1.03849 -0.00266409 0
				1.03071 -0.00602692 0
				1.04717 0.0162568 0
				1.04095 0.00822932 0
				1.04599 0.0357748 0
				1.0431 0.023518 0
				1.0357 0.0533567 0
				1.03774 0.0382583 0
				1.01807 0.066087 0
				1.02579 0.0501447 0
				0.996111 0.0718539 0
				1.00923 0.0571186 0
				0.973283 0.0700361 0
				0.990742 0.0581569 0
				0.952554 0.0613758 0
				0.972962 0.0534336 0
				0.935932 0.04739 0
				0.957852 0.0439567 0
				0.924498 0.0297876 0
				0.94658 0.0310569 0
				0.918713 0.0101467 0
				0.939694 0.016029 0
				0.918713 -0.0101468 0
				0.937386 -1.03687e-08 0
				0.924499 -0.0297877 0
				0.939694 -0.016029 0
				0.935932 -0.04739 0
				0.94658 -0.0310569 0
				0.952554 -0.0613758 0
				0.957852 -0.0439567 0
				0.973283 -0.0700361 0
				0.972962 -0.0534336 0
				0.996111 -0.0718539 0
				0.990742 -0.0581569 0
				1.01807 -0.066087 0
				1.00923 -0.0571186 0
				1.0357 -0.0533566 0
				1.02579 -0.0501447 0
				1.04599 -0.0357747 0
				1.03774 -0.0382583 0
				1.04717 -0.0162568 0
				1.0431 -0.023518 0
				1.03849 0.00266409 0
				1.04095 -0.00822932 0
				1.0186 0.0196921 0
				1.03071 0.00602691 0
				0.983135 0.034524 0
				1.01023 0.0189675 0
				0.923924 0.0455491 0
				0.973239 0.0310649 0
				0.840779 0.044568 0
				0.911306 0.0394101 0
				0.770097 0.0197451 0
				0.83545 0.0314565 0
				0.88677 -0.0116696 0
				0.85303 -4.51166e-08 0
				0.933867 -0.0227614 0
				0.884659 -0.0218317 0
				0.981094 -0.0175363 0
				0.945235 -0.0250775 0
				1.00685 -0.00879417 0
				0.989622 -0.0167863 0
				1.01797 -0.00150675 0
				1.01184 -0.00738587 0
				1.02225 0.00515002 0
				1.02164 0.0012092 0
				1.02261 0.0118292 0
				1.025 0.00967927 0
				1.01981 0.0182324 0
				1.02392 0.0180884 0
				1.01428 0.0235467 0
				1.01906 0.0257075 0
				1.00673 0.0269099 0
				1.01109 0.0314402 0
				0.998213 0.027794 0
				1.00114 0.0343498 0
				0.989849 0.0261632 0
				0.990614 0.0340388 0
				0.982529 0.0223817 0
				0.980819 0.0307064 0
				0.976804 0.0170009 0
				0.972678 0.0249467 0
				0.972932 0.0105775 0
				0.966699 0.0174817 0
				0.970991 0.00358535 0
				0.963083 0.00898038 0
				0.970991 -0.00358536 0
				0.961877 -7.69728e-09 0
				0.972932 -0.0105775 0
				0.963083 -0.00898039 0
				0.976804 -0.0170009 0
				0.966699 -0.0174817 0
				0.982529 -0.0223817 0
				0.972678 -0.0249467 0
				0.989849 -0.0261632 0
				0.980819 -0.0307064 0
				0.998213 -0.027794 0
				0.990614 -0.0340388 0
				1.00673 -0.0269099 0
				1.00114 -0.0343498 0
				1.01428 -0.0235467 0
				1.01109 -0.0314402 0
				1.01981 -0.0182324 0
				1.01906 -0.0257075 0
				1.02261 -0.0118292 0
				1.02392 -0.0180884 0
				1.02225 -0.00515002 0
				1.025 -0.00967927 0
				1.01797 0.00150677 0
				1.02164 -0.0012092 0
				1.00685 0.00879418 0
				1.01184 0.00738588 0
				0.981094 0.0175364 0
				0.989622 0.0167863 0
				0.933867 0.0227614 0
				0.945235 0.0250775 0
				0.88677 0.0116695 0
				0.884658 0.0218316 0
				0.923015 -0.00854017 0
				0.935021 2.12171e-08 0
				0.959111 -0.0162201 0
				0.953432 -0.0131829 0
				0.992986 -0.0117459 0
				0.985738 -0.0133323 0
				1.00899 -0.0051608 0
				1.00524 -0.00740079 0
				1.01426 -8.22502e-05 0
				1.01223 -0.00251336 0
				1.01524 0.00419187 0
				1.01393 0.00117445 0
				1.0141 0.00816541 0
				1.0135 0.00452467 0
				1.0114 0.0117256 0
				1.01173 0.00765959 0
				1.00743 0.0144854 0
				1.00884 0.0103138 0
				1.00264 0.0160533 0
				1.00511 0.0121358 0
				0.997575 0.0162214 0
				1.00096 0.0128751 0
				0.992796 0.0150314 0
				0.996847 0.0124769 0
				0.988724 0.0127157 0
				0.993174 0.011071 0
				0.985598 0.00958465 0
				0.990203 0.0088896 0
				0.983511 0.00593453 0
				0.988059 0.00618158 0
				0.982472 0.00200688 0
				0.986775 0.00316171 0
				0.982472 -0.00200689 0
				0.986349 -1.75167e-09 0
				0.983511 -0.00593453 0
				0.986775 -0.00316171 0
				0.985598 -0.00958465 0
				0.988059 -0.00618158 0