<VTKFile type="UnstructuredGrid" version="0.1" byte_order="LittleEndian">
<UnstructuredGrid>
	<Piece NumberOfPoints="288" NumberOfCells="512">
		<CellData Scalars="density" Vectors="velocity">
			<DataArray type="Float64" Name="density" Format="ascii">
				1.13161
				1.19379
				1.03037
				1.10874
				0.957041
				1.02714
				0.889385
				0.955314
				0.827108
				0.888866
				0.773888
				0.830096
				0.73689
				0.784981
				0.723853
				0.760507
				0.737549
				0.760786
				0.773323
				0.784221
				0.823573
				0.82431
				0.881741
				0.873434
				0.943455
				0.92616
				1.00639
				0.978925
				1.06657
				1.02918
				1.09725
				1.07102
				1.09755
				1.0946
				1.06442
				1.06947
				1.00354
				1.02711
				0.940435
				0.976548
				0.878313
				0.923424
				0.819532
				0.870189
				0.76848
				0.820406
				0.731785
				0.779529
				0.717249
				0.755274
				0.729738
				0.754281
				0.766411
				0.778213
				0.819267
				0.822828
				0.880936
				0.880965
				0.947493
				0.946389
				1.01841
				1.01612
				1.15557
				1.09798
				1.12374
				1.16309
				1.0548
				1.09322
				1.01337
				1.03879
				0.981372
				0.999445
				0.953835
				0.962234
				0.929154
				0.926432
				0.909188
				0.894909
				0.899298
				0.873843
				0.90473
				0.870219
				0.927205
				0.886367
				0.958921
				0.917893
				0.993434
				0.956512
				1.02531
				0.995642
				1.05058
				1.03051
				1.06732
				1.0582
				1.07613
				1.07728
				1.07498
				1.08045
				1.06687
				1.0764
				1.04985
				1.05731
				1.02405
				1.02917
				0.991592
				0.993748
				0.956423
				0.953968
				0.923969
				0.91459
				0.900762
				0.882228
				0.894849
				0.865333
				0.904649
				0.86859
				0.92483
				0.889739
				0.949854
				0.921626
				0.977742
				0.957916
				1.00986
				0.995547
				1.04974
				1.03434
				1.12596
				1.08138
				1.09378
				1.09856
				1.0062
				1.02624
				0.982717
				0.992144
				0.97624
				0.989249
				0.97391
				0.991486
				0.970738
				0.991324
				0.966427
				0.987949
				0.96322
				0.983202
				0.964181
				0.97948
				0.97117
				0.979155
				0.984687
				0.983469
				1.00139
				0.991898
				1.01793
				1.00193
				1.0318
				1.01127
				1.04274
				1.01884
				1.05282
				1.02524
				1.05199
				1.03256
				1.04253
				1.02515
				1.03134
				1.01856
				1.01708
				1.01073
				1.00014
				1.00107
				0.983001
				0.990686
				0.96907
				0.981906
				0.961793
				0.977316
				0.960752
				0.977516
				0.964069
				0.981279
				0.968592
				0.986184
				0.971979
				0.989792
				0.974415
				0.990211
				0.980658
				0.988102
				1.00218
				0.990569
				1.09319
				1.02341
				1.04064
				1.09309
				0.997557
				1.0137
				0.998992
				0.996127
				0.999846
				0.99592
				0.996723
				0.995311
				0.991998
				0.991823
				0.988114
				0.987237
				0.986583
				0.983849
				0.988195
				0.983329
				0.992572
				0.986268
				0.998345
				0.992214
				1.00445
				0.999694
				1.0098
				1.00722
				1.01364
				1.01355
				1.01531
				1.01797
				1.01652
				1.01976
				1.01648
				1.02092
				1.01519
				1.01977
				1.01331
				1.0177
				1.00929
				1.01306
				1.00374
				1.00651
				0.997444
				0.99876
				0.991504
				0.991062
				0.987009
				0.984943
				0.985374
				0.981927
				0.98698
				0.982479
				0.991019
				0.986001
				0.995969
				0.990809
				0.999377
				0.994573
				0.998794
				0.995436
				0.997036
				0.995663
				1.03939
				1.01011
				1.02763
				1.02788
				0.987796
				0.995607
				0.994468
				0.996343
				0.997118
				0.99996
				0.997161
				0.999974
				0.996464
				0.999287
				0.995931
				0.99863
				0.996
				0.998171
				0.996838
				0.998063
				0.998456
				0.99843
				1.00079
				0.999241
				1.00334
				1.0004
				1.00563
				1.00159
				1.0074
				1.00257
				1.00876
				1.00332
				1.01
				1.00429
				1.00995
				1.00531
				1.00864
				1.00417
				1.00718
				1.00316
				1.00531
				1.00234
				1.00292
				1.00128
				1.00029
				1.00002
				0.997896
				0.99882
				0.996256
				0.997994
				0.99543
				0.997635
				0.995394
				0.997775
				0.995982
				0.99828
				0.996752
				0.99899
				0.996803
				0.999736
				0.994261
				0.999796
				0.987671
				0.996344
				1.02509
				0.994179
				1.00377
				1.02389
				0.996885
				0.994176
				0.99924
				0.997376
				0.99898
				0.998711
				0.998383
				0.998493
				0.997883
				0.997931
				0.997669
				0.997492
				0.997867
				0.997404
				0.998523
				0.997799
				0.999435
				0.998645
				1.0004
				0.99976
				1.00126
				1.00092
				1.00191
				1.00193
				1.00229
				1.00268
				1.0024
				1.00313
				1.00261
				1.00328
				1.00258
				1.00336
				1.00231
				1.00319
				1.00215
				1.00299
				1.00172
				1.00248
				1.00102
				1.00168
				1.00012
				1.00061
				0.999125
				0.999416
				0.99819
				0.998272
				0.997533
				0.997419
				0.997366
				0.997044
				0.997633
				0.997179
				0.998202
				0.997683
				0.998879
				0.998322
				0.999228
				0.998623
				0.996922
				0.99752
				0.998448
				0.992703
				1.00134
				0.999316
				0.997491
				0.998286
				0.998698
				0.998661
				0.998631
				0.998865
				0.998539
				0.998702
				0.998511
				0.99865
				0.998576
				0.998654
				0.998763
				0.998717
				0.999105
				0.998875
				0.999552
				0.999151
				1
				0.999461
				1.00041
				0.999739
				1.00074
				0.999965
				1.00097
				1.00013
				1.00115
				1.00023
				1.00139
				1.00037
				1.00138
				1.00059
				1.0011
				1.00034
				1.0009
				1.0002
				1.00065
				1.00008
				1.00031
				0.999902
				0.99989
				0.999666
				0.999434
				0.999386
				0.998996
				0.999085
				0.998665
				0.998824
				0.998476
				0.998672
				0.998415
				0.998607
				0.998453
				0.998601
				0.998563
				0.998655
				0.998642
				0.998819
				0.997773
				0.998692
				0.995367
				0.996829
				1.00041
				0.996014
				0.998458
				0.99982
				0.998688
				0.998371
				0.998681
				0.998712
				0.99868
				0.998714
				0.998671
				0.998727
				0.998664
				0.998749
				0.998657
				0.998792
				0.999107
				0.998876
				0.999501
				0.999181
				0.99972
				0.999561
				0.999855
				0.999817
				0.99993
				0.999992
				0.999959
				1.0001
				0.999943
				1.00017
				0.999929
				1.0002
				0.999929
				1.00025
				0.999938
				1.00018
				0.999947
				1.00014
				0.999913
				1.00007
				0.999835
				0.999956
				0.999701
				0.999781
				0.999489
				0.999531
				0.999111
				0.999164
				0.998681
				0.99888
				0.99868
				0.998792
				0.998692
				0.998752
				0.998713
				0.998739
				0.998726
				0.998738
				0.998741
				0.99874
				0.998483
				0.998527
				0.995433
				0.998445
			</DataArray>
			<DataArray type="Float64" Name="mach-number" Format="ascii">
				0.0532404
				0.105096
				0.168245
				0.150943
				0.282683
				0.24222
				0.39498
				0.345112
				0.499026
				0.445987
				0.587244
				0.536368
				0.649314
				0.606458
				0.673541
				0.64565
				0.65578
				0.647037
				0.603847
				0.612768
				0.529638
				0.552436
				0.442765
				0.476515
				0.34824
				0.391769
				0.248271
				0.302229
				0.144709
				0.21254
				0.0471484
				0.133083
				0.0502894
				0.0858989
				0.149317
				0.136522
				0.253042
				0.216512
				0.353271
				0.306681
				0.448337
				0.396639
				0.53609
				0.481987
				0.611564
				0.558784
				0.665037
				0.620259
				0.684187
				0.65573
				0.660701
				0.655261
				0.598937
				0.616602
				0.511201
				0.546957
				0.408184
				0.457222
				0.297622
				0.357288
				0.185852
				0.255342
				0.0740465
				0.161209
				0.183908
				0.140913
				0.20228
				0.159669
				0.244788
				0.199175
				0.303141
				0.262638
				0.370672
				0.336173
				0.439531
				0.413874
				0.498676
				0.486381
				0.535428
				0.540065
				0.540831
				0.561374
				0.514453
				0.546015
				0.466381
				0.50171
				0.406554
				0.43978
				0.343505
				0.369179
				0.28522
				0.296503
				0.238973
				0.22783
				0.202125
				0.165628
				0.204209
				0.126383
				0.240733
				0.168831
				0.287694
				0.230495
				0.346757
				0.299815
				0.410504
				0.373092
				0.471083
				0.444374
				0.520015
				0.507164
				0.547254
				0.552494
				0.542349
				0.568785
				0.5055
				0.547826
				0.445709
				0.493763
				0.375791
				0.420423
				0.306785
				0.341654
				0.246377
				0.266831
				0.200484
				0.201538
				0.181868
				0.155855
				0.206031
				0.219301
				0.226802
				0.243196
				0.272336
				0.282696
				0.324895
				0.326536
				0.37544
				0.36941
				0.419023
				0.406966
				0.452266
				0.436692
				0.471706
				0.456296
				0.474027
				0.463119
				0.458717
				0.455266
				0.428196
				0.434017
				0.388442
				0.403694
				0.346005
				0.369951
				0.306734
				0.338424
				0.274091
				0.313605
				0.241864
				0.296876
				0.243603
				0.28809
				0.275238
				0.297516
				0.30854
				0.314843
				0.348508
				0.340329
				0.39161
				0.372503
				0.432017
				0.406865
				0.46315
				0.437775
				0.478892
				0.459524
				0.476684
				0.467657
				0.457011
				0.460798
				0.423248
				0.440859
				0.378862
				0.410534
				0.327082
				0.37208
				0.272557
				0.327863
				0.223806
				0.282004
				0.203449
				0.240361
				0.262266
				0.233093
				0.315673
				0.264807
				0.34858
				0.311905
				0.371409
				0.347153
				0.388225
				0.373942
				0.40142
				0.394509
				0.411059
				0.410008
				0.415873
				0.419763
				0.414487
				0.422284
				0.40651
				0.416806
				0.393641
				0.403938
				0.378488
				0.385997
				0.363951
				0.366276
				0.352383
				0.347982
				0.344891
				0.333241
				0.33938
				0.320886
				0.339555
				0.315009
				0.345479
				0.321337
				0.353443
				0.334161
				0.365458
				0.349382
				0.380417
				0.368147
				0.395948
				0.388307
				0.409113
				0.406628
				0.417255
				0.419768
				0.418622
				0.425346
				0.413601
				0.422723
				0.403593
				0.412662
				0.389897
				0.396677
				0.372473
				0.375467
				0.348889
				0.347835
				0.314886
				0.311367
				0.260437
				0.26216
				0.274382
				0.266869
				0.336367
				0.333764
				0.364035
				0.366111
				0.378505
				0.379077
				0.38734
				0.386045
				0.393502
				0.390862
				0.397417
				0.394198
				0.398617
				0.395718
				0.396697
				0.394981
				0.391829
				0.391819
				0.384708
				0.386746
				0.376641
				0.380696
				0.368971
				0.374765
				0.362637
				0.369862
				0.357745
				0.366507
				0.353207
				0.364486
				0.353303
				0.363491
				0.358171
				0.364771
				0.36336
				0.36705
				0.369987
				0.370669
				0.377927
				0.375819
				0.386225
				0.381971
				0.393511
				0.388196
				0.398457
				0.393381
				0.400355
				0.396573
				0.399029
				0.397244
				0.394888
				0.39557
				0.388418
				0.392002
				0.379205
				0.386889
				0.364281
				0.37957
				0.33596
				0.366229
				0.272375
				0.333116
				0.324229
				0.272795
				0.373916
				0.348335
				0.382204
				0.375028
				0.384899
				0.382292
				0.386415
				0.385489
				0.38739
				0.387436
				0.387747
				0.388574
				0.387298
				0.388742
				0.385929
				0.387742
				0.383774
				0.385617
				0.381236
				0.382661
				0.378748
				0.379366
				0.376669
				0.376254
				0.375207
				0.3737
				0.374374
				0.371843
				0.373689
				0.370132
				0.373761
				0.369416
				0.374603
				0.370304
				0.375581
				0.372182
				0.377179
				0.3742
				0.379382
				0.376904
				0.381972
				0.380147
				0.384581
				0.383542
				0.386765
				0.386555
				0.388112
				0.388684
				0.388489
				0.389634
				0.388021
				0.389364
				0.386906
				0.388079
				0.385226
				0.385947
				0.38234
				0.382526
				0.373895
				0.375056
				0.322981
				0.347716
				0.330655
				0.322893
				0.379158
				0.374219
				0.383569
				0.383343
				0.384802
				0.38457
				0.385336
				0.384922
				0.385519
				0.385041
				0.385349
				0.384921
				0.384773
				0.384512
				0.383754
				0.383775
				0.382409
				0.38273
				0.380955
				0.381563
				0.379573
				0.380439
				0.378407
				0.379479
				0.377526
				0.378758
				0.376908
				0.378307
				0.376238
				0.378093
				0.376274
				0.377976
				0.377036
				0.378175
				0.377735
				0.378458
				0.378692
				0.378974
				0.379923
				0.379753
				0.381355
				0.380762
				0.382838
				0.381918
				0.384182
				0.383096
				0.38518
				0.384129
				0.385724
				0.384836
				0.385839
				0.385202
				0.385584
				0.385263
				0.384967
				0.385074
				0.383629
				0.384639
				0.379182
				0.383364
				0.329277
				0.37374
				0.363001
				0.324921
				0.383125
				0.380295
				0.383742
				0.383789
				0.383727
				0.384109
				0.383636
				0.384026
				0.383476
				0.38387
				0.383236
				0.383626
				0.382913
				0.383279
				0.382104
				0.382826
				0.381364
				0.381945
				0.380745
				0.381142
				0.380254
				0.380455
				0.379892
				0.379905
				0.37965
				0.379491
				0.379518
				0.379204
				0.379461
				0.379001
				0.379473
				0.378902
				0.379552
				0.379037
				0.379704
				0.37927
				0.379963
				0.379583
				0.380337
				0.380016
				0.38083
				0.380577
				0.381439
				0.381262
				0.382152
				0.382046
				0.382934
				0.382886
				0.383239
				0.383327
				0.383447
				0.383651
				0.38357
				0.38386
				0.383626
				0.383977
				0.383605
				0.384013
				0.382985
				0.383705
				0.361832
				0.37964
			</DataArray>
			<DataArray type="Float64" Name="pressure" Format="ascii">
				5.2257
				5.20651
				5.09988
				5.15639
				4.90252
				5.01644
				4.6424
				4.81314
				4.34505
				4.5579
				4.0588
				4.28876
				3.84799
				4.06447
				3.77482
				3.94445
				3.86276
				3.96484
				4.08432
				4.12061
				4.38614
				4.37227
				4.71108
				4.66563
				5.01173
				4.95201
				5.24883
				5.19189
				5.38546
				5.35181
				5.41187
				5.40614
				5.41177
				5.40807
				5.38265
				5.40562
				5.23936
				5.34654
				4.99731
				5.18163
				4.69175
				4.93737
				4.36151
				4.64648
				4.05382
				4.34826
				3.82611
				4.09145
				3.73299
				3.93089
				3.80371
				3.90719
				4.01462
				4.02596
				4.30236
				4.25063
				4.60232
				4.52156
				4.86649
				4.78012
				5.07
				4.98838
				5.19251
				5.13249
				5.11052
				5.1394
				5.06483
				5.1058
				4.98616
				5.02887
				4.88619
				4.91592
				4.76594
				4.77189
				4.62961
				4.60416
				4.49965
				4.43502
				4.41903
				4.30869
				4.42718
				4.27672
				4.53349
				4.35976
				4.70191
				4.53402
				4.89132
				4.75112
				5.06688
				4.96743
				5.2028
				5.14973
				5.28432
				5.27454
				5.31042
				5.32983
				5.30919
				5.3403
				5.28122
				5.32803
				5.19722
				5.26994
				5.05824
				5.14167
				4.87937
				4.95579
				4.68628
				4.73557
				4.51383
				4.51408
				4.4037
				4.33512
				4.39348
				4.24816
				4.47445
				4.27868
				4.60662
				4.40638
				4.74574
				4.57836
				4.86864
				4.74921
				4.97131
				4.89641
				5.05386
				5.01321
				5.10626
				5.09563
				5.05335
				5.03653
				5.03566
				5.02365
				4.99659
				4.99389
				4.93818
				4.95313
				4.86409
				4.89891
				4.78365
				4.83703
				4.71203
				4.77955
				4.66811
				4.74055
				4.66851
				4.73247
				4.71933
				4.76331
				4.8109
				4.82891
				4.92093
				4.91538
				5.02708
				5.00468
				5.11279
				5.08117
				5.16981
				5.13485
				5.19556
				5.15867
				5.1943
				5.16711
				5.16708
				5.15734
				5.10825
				5.13188
				5.0203
				5.07645
				4.91167
				4.99796
				4.79899
				4.9065
				4.70487
				4.81783
				4.65221
				4.75034
				4.65124
				4.71839
				4.69586
				4.7264
				4.76911
				4.76625
				4.85174
				4.82528
				4.92839
				4.88924
				4.98956
				4.94582
				5.03152
				4.98899
				5.04946
				5.02073
				4.98964
				5.00044
				4.97653
				4.99136
				4.963
				4.97176
				4.94156
				4.94828
				4.91534
				4.91796
				4.88886
				4.88421
				4.86785
				4.85351
				4.85838
				4.83371
				4.8657
				4.83192
				4.88993
				4.85131
				4.92603
				4.8894
				4.96676
				4.93836
				5.00462
				4.98841
				5.03393
				5.03111
				5.05092
				5.06088
				5.05716
				5.07561
				5.05668
				5.07988
				5.04944
				5.07451
				5.03123
				5.05854
				5.0007
				5.02742
				4.96159
				4.98329
				4.91966
				4.93178
				4.88254
				4.88145
				4.85768
				4.8423
				4.85028
				4.82241
				4.86022
				4.82435
				4.88215
				4.8449
				4.90982
				4.87681
				4.93741
				4.91205
				4.96026
				4.94399
				4.97503
				4.969
				4.99033
				4.99038
				4.96335
				4.96347
				4.96013
				4.95205
				4.95129
				4.95006
				4.94047
				4.94344
				4.92834
				4.93511
				4.9169
				4.92685
				4.90876
				4.92065
				4.90661
				4.91852
				4.91199
				4.92192
				4.9247
				4.93119
				4.94259
				4.94472
				4.96229
				4.96009
				4.9805
				4.97473
				4.99491
				4.98663
				5.00429
				4.99461
				5.00837
				4.99781
				5.00802
				4.99882
				5.00318
				4.99713
				4.993
				4.99329
				4.9778
				4.98462
				4.95883
				4.97207
				4.93845
				4.95683
				4.92004
				4.94095
				4.90706
				4.92709
				4.90171
				4.9177
				4.90415
				4.91442
				4.91282
				4.9169
				4.92496
				4.92362
				4.93788
				4.9325
				4.94952
				4.94152
				4.95902
				4.94876
				4.96477
				4.95217
				4.94733
				4.94674
				4.94388
				4.94526
				4.94307
				4.94329
				4.94088
				4.94114
				4.93854
				4.93791
				4.93672
				4.93479
				4.93623
				4.93281
				4.93777
				4.933
				4.94181
				4.93611
				4.94772
				4.94202
				4.95454
				4.94979
				4.96119
				4.95816
				4.96677
				4.96582
				4.97076
				4.97189
				4.97293
				4.97589
				4.97361
				4.97774
				4.9734
				4.97815
				4.9723
				4.97727
				4.96973
				4.97494
				4.96534
				4.97049
				4.9594
				4.96398
				4.95245
				4.95592
				4.9454
				4.94724
				4.93939
				4.93926
				4.93538
				4.9333
				4.93402
				4.93029
				4.9348
				4.93035
				4.93697
				4.9327
				4.93971
				4.93626
				4.94233
				4.93997
				4.94346
				4.94254
				4.94919
				4.94566
				4.94444
				4.94979
				4.94463
				4.94182
				4.94321
				4.94398
				4.94248
				4.94336
				4.94181
				4.94308
				4.94153
				4.94301
				4.94197
				4.94344
				4.9434
				4.94462
				4.94597
				4.94673
				4.94942
				4.94963
				4.95319
				4.95276
				4.95681
				4.95582
				4.95989
				4.95849
				4.96222
				4.96055
				4.9637
				4.9619
				4.96432
				4.96246
				4.96419
				4.96259
				4.9633
				4.96222
				4.96155
				4.96142
				4.95898
				4.95985
				4.95568
				4.95758
				4.95189
				4.95475
				4.94801
				4.95157
				4.94454
				4.94838
				4.94202
				4.94552
				4.94066
				4.9435
				4.94036
				4.94243
				4.94082
				4.94213
				4.94169
				4.94235
				4.94266
				4.94281
				4.94415
				4.94353
				4.9463
				4.94239
				4.94388
				4.94245
				4.94368
				4.94243
				4.9438
				4.94344
				4.94394
				4.94349
				4.94407
				4.94361
				4.94429
				4.9438
				4.94467
				4.94421
				4.94525
				4.94493
				4.94736
				4.94594
				4.94988
				4.94866
				4.9523
				4.95122
				4.95445
				4.95365
				4.95621
				4.95574
				4.95753
				4.9574
				4.95834
				4.95855
				4.95869
				4.95916
				4.95861
				4.95931
				4.9581
				4.95898
				4.95714
				4.9582
				4.9557
				4.9569
				4.95385
				4.95512
				4.95166
				4.95295
				4.94926
				4.95049
				4.94681
				4.94796
				4.94485
				4.94534
				4.94429
				4.94435
				4.94395
				4.94368
				4.94379
				4.94335
				4.94374
				4.94326
				4.94372
				4.94327
				4.94362
				4.94329
				4.94573
				4.94319
			</DataArray>
			<DataArray type="Float64" Name="velocity" NumberOfComponents="3" Format="ascii">
				0.0820763 -0.107653 0
				0.258072 0.0289659 0
				0.2157 -0.386804 0
				0.320095 -0.214203 0
				0.451279 -0.607807 0
				0.455268 -0.44033 0
				0.764218 -0.74568 0
				0.685889 -0.607991 0
				1.11309 -0.769758 0
				0.970549 -0.697095 0
				1.4463 -0.663592 0
				1.2727 -0.679087 0
				1.70123 -0.433679 0
				1.54172 -0.537764 0
				1.81601 -0.119125 0
				1.716 -0.286889 0
				1.76309 0.211466 0
				1.74762 0.01991 0
				1.56735 0.489432 0
				1.63285 0.309745 0
				1.28081 0.67162 0
				1.41057 0.52588 0
				0.958028 0.740667 0
				1.13416 0.641693 0
				0.644566 0.697437 0
				0.851313 0.651286 0
				0.375931 0.555645 0
				0.601123 0.562922 0
				0.176077 0.342093 0
				0.413287 0.397568 0
				0.0663225 0.104648 0
				0.294136 0.196582 0
				0.0677802 -0.113419 0
				0.22587 -0.00450777 0
				0.180637 -0.353858 0
				0.298626 -0.206669 0
				0.382062 -0.567485 0
				0.416995 -0.40956 0
				0.653028 -0.708513 0
				0.607307 -0.57433 0
				0.969317 -0.75076 0
				0.860143 -0.661659 0
				1.29553 -0.680351 0
				1.14591 -0.650784 0
				1.58621 -0.496038 0
				1.42568 -0.533209 0
				1.78642 -0.214643 0
				1.65171 -0.314365 0
				1.84288 0.121006 0
				1.76992 -0.0202913 0
				1.72928 0.441685 0
				1.7402 0.292385 0
				1.47347 0.677929 0
				1.56564 0.549918 0
				1.13852 0.790611 0
				1.29477 0.697993 0
				0.7874 0.773715 0
				0.98971 0.722921 0
				0.471266 0.644088 0
				0.701041 0.641265 0
				0.230635 0.433069 0
				0.464367 0.482159 0
				0.0853397 0.164952 0
				0.313674 0.26774 0
				0.462556 -0.0372257 0
				0.350416 0.00674217 0
				0.509761 -0.123305 0
				0.393498 -0.108882 0
				0.60763 -0.208697 0
				0.467146 -0.225042 0
				0.751853 -0.274351 0
				0.609526 -0.321674 0
				0.932292 -0.303254 0
				0.798791 -0.382834 0
				1.12728 -0.277215 0
				1.0211 -0.386196 0
				1.29946 -0.185497 0
				1.24243 -0.312588 0
				1.40391 -0.0351946 0
				1.40986 -0.160358 0
				1.40851 0.141164 0
				1.47189 0.0427433 0
				1.31305 0.295911 0
				1.41171 0.245094 0
				1.15647 0.39463 0
				1.25769 0.398635 0
				0.979159 0.424951 0
				1.05599 0.479392 0
				0.814585 0.39091 0
				0.847427 0.483585 0
				0.685782 0.306149 0
				0.662348 0.419951 0
				0.599502 0.190894 0
				0.519016 0.304694 0
				0.526924 0.0678261 0
				0.40594 0.158821 0
				0.531474 -0.0766438 0
				0.33243 -0.00407228 0
				0.601487 -0.199601 0
				0.411544 -0.167806 0
				0.688803 -0.314941 0
				0.521827 -0.313726 0
				0.819768 -0.399341 0
				0.666973 -0.428785 0
				0.986734 -0.432728 0
				0.854309 -0.491933 0
				1.16672 -0.401324 0
				1.06547 -0.486954 0
				1.32628 -0.300757 0
				1.2702 -0.404859 0
				1.42456 -0.14298 0
				1.42756 -0.248988 0
				1.42142 0.0375055 0
				1.49053 -0.0429786 0
				1.31624 0.192154 0
				1.42918 0.164749 0
				1.14133 0.287571 0
				1.25978 0.321469 0
				0.942153 0.316456 0
				1.03455 0.398751 0
				0.756432 0.289695 0
				0.807227 0.39823 0
				0.606134 0.225722 0
				0.612464 0.33932 0
				0.500715 0.142116 0
				0.464306 0.245011 0
				0.455454 0.0506262 0
				0.378157 0.131316 0
				0.52372 -0.0167349 0
				0.555581 0.00389512 0
				0.594768 -0.0816161 0
				0.635638 -0.0360135 0
				0.712031 -0.144739 0
				0.745875 -0.0826434 0
				0.845648 -0.180002 0
				0.85595 -0.121519 0
				0.976141 -0.18091 0
				0.961703 -0.138187 0
				1.09069 -0.14735 0
				1.05587 -0.128544 0
				1.17877 -0.0819769 0
				1.1328 -0.09157 0
				1.22866 0.00865772 0
				1.18513 -0.0300152 0
				1.22924 0.110231 0
				1.20354 0.0477788 0
				1.17936 0.201618 0
				1.18127 0.127313 0
				1.0885 0.263239 0
				1.12187 0.190513 0
				0.978333 0.284475 0
				1.03938 0.224349 0
				0.870207 0.265472 0
				0.952316 0.22403 0
				0.779154 0.213587 0
				0.876568 0.193084 0
				0.708526 0.139439 0
				0.821117 0.140332 0
				0.633766 0.0499654 0
				0.784246 0.0762357 0
				0.637924 -0.0571623 0
				0.762523 -0.00377277 0
				0.710119 -0.146241 0
				0.785237 -0.0826758 0
				0.782001 -0.22043 0
				0.82322 -0.146695 0
				0.874801 -0.272108 0
				0.880172 -0.199309 0
				0.984865 -0.290578 0
				0.957634 -0.229814 0
				1.09709 -0.268364 0
				1.04652 -0.229303 0
				1.18994 -0.205125 0
				1.13083 -0.194126 0
				1.24122 -0.111382 0
				1.19176 -0.128975 0
				1.24099 -0.00697656 0
				1.21479 -0.0469807 0
				1.19028 0.0864977 0
				1.19612 0.0334247 0
				1.10046 0.154373 0
				1.14262 0.0973977 0
				0.983343 0.190012 0
				1.0638 0.136398 0
				0.849208 0.190728 0
				0.967072 0.147575 0
				0.710426 0.156376 0
				0.857841 0.131816 0
				0.586039 0.09288 0
				0.74304 0.0929342 0
				0.516781 0.0244947 0
				0.628363 0.0442655 0
				0.679367 -0.0135437 0
				0.589885 0.00234733 0
				0.833834 -0.0263685 0
				0.694818 -0.0248357 0
				0.918365 -0.0414848 0
				0.822724 -0.0539053 0
				0.975808 -0.0476828 0
				0.912934 -0.0696679 0
				1.0191 -0.0449039 0
				0.98089 -0.0718261 0
				1.05393 -0.0319532 0
				1.03404 -0.0613252 0
				1.07949 -0.00844794 0
				1.075 -0.0375085 0
				1.0917 0.0234055 0
				1.10089 -0.0013272 0
				1.08668 0.0583186 0
				1.10677 0.0425587 0
				1.06394 0.0882374 0
				1.09039 0.0860212 0
				1.0291 0.106504 0
				1.05421 0.119587 0
				0.989785 0.109617 0
				1.00588 0.136463 0
				0.953643 0.0981421 0
				0.955091 0.134229 0
				0.926081 0.0755686 0
				0.910109 0.11495 0
				0.908997 0.0465456 0
				0.875196 0.0833937 0
				0.89554 0.0149769 0
				0.845897 0.0441824 0
				0.895886 -0.0196672 0
				0.831411 -0.00257337 0
				0.910224 -0.0511546 0
				0.84672 -0.0491519 0
				0.928418 -0.0799774 0
				0.877074 -0.088232 0
				0.957077 -0.1022 0
				0.913118 -0.119561 0
				0.994334 -0.113103 0
				0.959314 -0.138395 0
				1.03472 -0.109137 0
				1.01134 -0.139897 0
				1.07044 -0.0897018 0
				1.0608 -0.121938 0
				1.09371 -0.0583365 0
				1.09783 -0.0869196 0
				1.09871 -0.021832 0
				1.11454 -0.0417336 0
				1.08591 0.0115336 0
				1.10835 0.00392831 0
				1.0593 0.0363187 0
				1.08153 0.0417194 0
				1.02306 0.0502285 0
				1.03915 0.0668329 0
				0.978121 0.0536071 0
				0.984194 0.078248 0
				0.918717 0.0476364 0
				0.914007 0.0766034 0
				0.831637 0.0322161 0
				0.820775 0.0608524 0
				0.674953 0.0188655 0
				0.688767 0.0310453 0
				0.71349 0.00158178 0
				0.693877 0.00139376 0
				0.891693 -0.0165562 0
				0.880724 -0.00670399 0
				0.960859 -0.0217281 0
				0.965503 -0.0102139 0
				0.996666 -0.021044 0
				0.997197 -0.0124318 0
				1.01875 -0.0163403 0
				1.01468 -0.0115451 0
				1.03422 -0.00721727 0
				1.02687 -0.00696377 0
				1.04394 0.006283 0
				1.03535 0.0014186 0
				1.04659 0.0228379 0
				1.03928 0.0128896 0
				1.04117 0.0397637 0
				1.03752 0.0257281 0
				1.02825 0.0535353 0
				1.02963 0.0373639 0
				1.00972 0.0612512 0
				1.01695 0.045123 0
				0.989178 0.0614329 0
				1.00188 0.0474244 0
				0.970041 0.0545228 0
				0.987259 0.0440416 0
				0.954496 0.0422071 0
				0.975336 0.0359919 0
				0.942418 0.0265249 0
				0.967238 0.0248926 0
				0.930599 0.00870204 0
				0.961986 0.0126026 0
				0.930803 -0.0118738 0
				0.959048 -0.00140633 0
				0.943401 -0.0296456 0
				0.962687 -0.0153958 0
				0.956191 -0.0451699 0
				0.968548 -0.0275686 0
				0.972456 -0.0571952 0
				0.977292 -0.0384343 0
				0.992286 -0.0636642 0
				0.989836 -0.0461272 0
				1.01345 -0.0628697 0
				1.00502 -0.0490153 0
				1.03243 -0.054369 0
				1.02055 -0.0460739 0
				1.04558 -0.0396788 0
				1.03353 -0.0375466 0
				1.05095 -0.0217679 0
				1.04149 -0.025056 0
				1.04797 -0.00425246 0
				1.04308 -0.0113501 0
				1.03767 0.0101032 0
				1.03874 0.000925473 0
				1.02138 0.0199225 0
				1.02966 0.00999185 0
				0.99831 0.0251285 0
				1.0167 0.0151022 0
				0.961327 0.026117 0
				0.998326 0.0163602 0
				0.890478 0.0209221 0
				0.965635 0.0142477 0
				0.709245 0.00287109 0
				0.879614 0.0108224 0
				0.85158 -0.0140542 0
				0.709467 0.00232041 0
				0.985255 -0.00143157 0
				0.919217 -0.00472744 0
				1.00582 -0.00138722 0
				0.987874 -0.0046775 0
				1.01282 -0.000433273 0
				1.00612 -0.00381508 0
				1.01688 0.00149881 0
				1.01432 -0.00192016 0
				1.0195 0.00460373 0
				1.01941 0.00131167 0
				1.02047 0.0087418 0
				1.0224 0.0061082 0
				1.0193 0.0133757 0
				1.02286 0.0120992 0
				1.01571 0.0176327 0
				1.02025 0.0183522 0
				1.01013 0.0204419 0
				1.01473 0.023579 0
				1.00364 0.0211357 0
				1.0071 0.0265657 0
				0.997354 0.0196416 0
				0.998685 0.0267316 0
				0.992175 0.0163597 0
				0.990818 0.0241615 0
				0.988596 0.0119198 0
				0.984424 0.0194651 0
				0.986609 0.0069582 0
				0.979807 0.0134378 0
				0.98479 0.00188899 0
				0.975471 0.00674949 0
				0.984969 -0.00348706 0
				0.973611 -0.000901739 0
				0.987182 -0.00848616 0
				0.97591 -0.00851243 0
				0.989526 -0.0133258 0
				0.980651 -0.0151029 0
				0.993448 -0.0175745 0
				0.98567 -0.0209578 0
				0.998942 -0.0205906 0
				0.992441 -0.0254005 0
				1.00549 -0.0217417 0
				1.00064 -0.0276295 0
				1.01217 -0.0206323 0
				1.00932 -0.0270355 0
				1.01784 -0.0173557 0
				1.0171 -0.0235475 0
				1.02137 -0.0126007 0
				1.02264 -0.0177724 0
				1.02236 -0.00748175 0
				1.02512 -0.0109638 0
				1.0211 -0.00291528 0
				1.0244 -0.00445595 0
				1.0181 0.000531214 0
				1.02101 0.000777819 0
				1.01361 0.00270103 0
				1.01543 0.00434152 0
				1.00611 0.00380099 0
				1.00665 0.00645945 0
				0.985133 0.00375062 0
				0.987784 0.00735874 0
				0.850661 0.0172663 0
				0.918284 0.00754187 0
				0.869374 0.00212032 0
				0.850286 0.000674716 0
				0.998841 -0.000471284 0
				0.985159 0.000359555 0
				1.00971 0.000588901 0
				1.00921 0.000844721 0
				1.01291 0.00164852 0
				1.01227 0.00160066 0
				1.01429 0.00313437 0
				1.01325 0.00245941 0
				1.01475 0.00500227 0
				1.01358 0.00373173 0
				1.0143 0.00709467 0
				1.0133 0.00523141 0
				1.01282 0.00915104 0
				1.0123 0.00673566 0
				1.01021 0.0108784 0
				1.01049 0.00798107 0
				1.00678 0.0119006 0
				1.00788 0.00882629 0
				1.00311 0.0118578 0
				1.00497 0.00905745 0
				0.999644 0.0108024 0
				1.00218 0.00847684 0
				0.996741 0.0089525 0
				0.999821 0.00724554 0
				0.994557 0.00659264 0
				0.99806 0.00557856 0
				0.993 0.00396786 0
				0.996962 0.00368728 0
				0.991185 0.00116354 0
				0.996393 0.00175203 0
				0.991272 -0.00203647 0
				0.99599 -0.000359032 0
				0.993318 -0.00480581 0
				0.996595 -0.00245467 0
				0.995068 -0.00735813 0