<VTKFile type="UnstructuredGrid" version="0.1" byte_order="LittleEndian">
<UnstructuredGrid>
	<Piece NumberOfPoints="288" NumberOfCells="512">
		<CellData Scalars="density" Vectors="velocity">
			<DataArray type="Float64" Name="density" Format="ascii">
				0.912928
				0.915539
				0.910457
				0.91491
				0.90423
				0.912271
				0.89336
				0.906358
				0.878644
				0.896996
				0.862921
				0.885732
				0.851092
				0.87589
				0.849308
				0.872215
				0.86239
				0.879354
				0.890695
				0.899309
				0.929766
				0.930079
				0.973093
				0.966936
				1.0146
				1.00459
				1.04955
				1.03846
				1.0746
				1.06506
				1.08763
				1.08196
				1.08763
				1.08775
				1.0746
				1.08196
				1.04955
				1.06506
				1.0146
				1.03846
				0.973093
				1.00459
				0.929766
				0.966936
				0.890695
				0.930079
				0.86239
				0.899309
				0.849308
				0.879354
				0.851092
				0.872215
				0.862921
				0.87589
				0.878644
				0.885732
				0.89336
				0.896996
				0.90423
				0.906358
				0.910457
				0.912271
				0.912928
				0.91491
				0.938681
				0.934947
				0.940256
				0.935359
				0.941293
				0.935437
				0.939836
				0.933133
				0.93566
				0.927633
				0.930318
				0.919911
				0.926709
				0.912516
				0.9282
				0.909188
				0.937124
				0.91365
				0.953451
				0.927577
				0.974877
				0.949449
				0.998103
				0.975573
				1.02004
				1.00193
				1.03831
				1.02525
				1.05129
				1.04328
				1.05801
				1.05459
				1.05801
				1.05843
				1.05129
				1.05459
				1.03831
				1.04328
				1.02004
				1.02525
				0.998103
				1.00193
				0.974877
				0.975573
				0.953451
				0.949449
				0.937124
				0.927577
				0.9282
				0.91365
				0.926709
				0.909188
				0.930318
				0.912516
				0.93566
				0.919911
				0.939836
				0.927633
				0.941293
				0.933133
				0.940256
				0.935437
				0.938681
				0.935359
				0.952852
				0.956567
				0.955529
				0.958559
				0.958234
				0.962699
				0.958763
				0.965682
				0.95698
				0.965986
				0.954207
				0.96431
				0.952485
				0.962463
				0.953968
				0.962499
				0.960051
				0.966034
				0.970618
				0.9736
				0.984135
				0.98443
				0.99848
				0.996898
				1.01174
				1.00923
				1.02255
				1.01999
				1.03009
				1.02822
				1.03394
				1.03333
				1.03394
				1.03506
				1.03009
				1.03333
				1.02255
				1.02822
				1.01174
				1.01999
				0.99848
				1.00923
				0.984135
				0.996898
				0.970618
				0.98443
				0.960051
				0.9736
				0.953968
				0.966034
				0.952485
				0.962499
				0.954207
				0.962463
				0.95698
				0.96431
				0.958763
				0.965986
				0.958234
				0.965682
				0.955529
				0.962699
				0.952852
				0.958559
				0.969001
				0.964296
				0.97339
				0.966612
				0.978425
				0.971464
				0.98123
				0.975334
				0.981792
				0.97691
				0.981437
				0.97692
				0.981501
				0.976676
				0.982953
				0.977427
				0.986245
				0.980043
				0.991221
				0.98474
				0.997226
				0.991027
				1.00341
				0.997987
				1.00902
				1.00467
				1.01354
				1.01035
				1.01666
				1.0146
				1.01824
				1.0172
				1.01824
				1.01807
				1.01666
				1.0172
				1.01354
				1.0146
				1.00902
				1.01035
				1.00341
				1.00467
				0.997226
				0.997987
				0.991221
				0.991027
				0.986245
				0.98474
				0.982953
				0.980043
				0.981501
				0.977427
				0.981437
				0.976676
				0.981792
				0.97692
				0.98123
				0.97691
				0.978425
				0.975334
				0.97339
				0.971464
				0.969001
				0.966612
				0.973933
				0.976689
				0.978349
				0.979198
				0.983421
				0.98428
				0.986527
				0.988144
				0.987794
				0.98981
				0.988273
				0.990254
				0.988833
				0.990511
				0.990024
				0.991218
				0.992064
				0.99267
				0.994843
				0.99488
				0.998013
				0.997619
				1.00116
				1.00053
				1.00392
				1.00325
				1.00609
				1.00553
				1.00756
				1.00721
				1.0083
				1.00824
				1.0083
				1.00858
				1.00756
				1.00824
				1.00609
				1.00721
				1.00392
				1.00553
				1.00116
				1.00325
				0.998013
				1.00053
				0.994843
				0.997619
				0.992064
				0.99488
				0.990024
				0.99267
				0.988833
				0.991218
				0.988273
				0.990511
				0.987794
				0.990254
				0.986527
				0.98981
				0.983421
				0.988144
				0.978349
				0.98428
				0.973933
				0.979199
				0.98396
				0.980687
				0.98759
				0.982996
				0.991429
				0.987618
				0.99349
				0.991135
				0.994229
				0.992816
				0.994535
				0.993501
				0.994916
				0.993935
				0.995599
				0.994512
				0.996593
				0.995399
				0.997829
				0.996604
				0.999172
				0.998017
				1.00046
				0.999463
				1.00158
				1.00078
				1.00244
				1.00186
				1.00302
				1.00264
				1.00331
				1.00311
				1.00331
				1.00327
				1.00302
				1.00311
				1.00244
				1.00264
				1.00158
				1.00186
				1.00046
				1.00078
				0.999172
				0.999463
				0.997829
				0.998017
				0.996593
				0.996604
				0.995599
				0.995399
				0.994916
				0.994512
				0.994535
				0.993935
				0.994229
				0.993501
				0.99349
				0.992816
				0.991429
				0.991135
				0.98759
				0.987618
				0.98396
				0.982996
				0.987216
				0.988727
				0.990352
				0.990346
				0.993606
				0.993407
				0.995341
				0.995466
				0.996007
				0.996259
				0.996302
				0.996502
				0.996568
				0.996656
				0.996935
				0.99692
				0.997403
				0.997426
				0.998039
				0.998014
				0.99873
				0.998652
				0.999387
				0.999283
				0.999948
				0.999841
				1.00038
				1.00029
				1.00066
				1.0006
				1.00081
				1.00079
				1.00081
				1.00085
				1.00066
				1.00079
				1.00038
				1.0006
				0.999948
				1.00029
				0.999387
				0.999841
				0.99873
				0.999283
				0.998039
				0.998652
				0.997403
				0.998014
				0.996935
				0.997426
				0.996568
				0.99692
				0.996302
				0.996656
				0.996007
				0.996502
				0.995341
				0.996259
				0.993606
				0.995466
				0.990352
				0.993407
				0.987216
				0.990346
				0.993479
				0.991664
				0.99535
				0.993015
				0.997054
				0.995491
				0.997661
				0.997014
				0.997631
				0.997457
				0.997452
				0.997464
				0.997312
				0.997413
				0.997268
				0.99744
				0.998415
				0.997616
				0.998886
				0.998284
				0.999256
				0.99877
				0.999538
				0.999172
				0.999744
				0.999492
				0.999883
				0.999731
				0.999967
				0.999895
				1.00001
				0.99999
				1.00001
				1.00002
				0.999967
				0.99999
				0.999883
				0.999895
				0.999744
				0.999731
				0.999538
				0.999492
				0.999256
				0.999172
				0.998886
				0.99877
				0.998415
				0.998284
				0.997268
				0.997616
				0.997312
				0.99744
				0.997452
				0.997413
				0.997631
				0.997464
				0.997661
				0.997457
				0.997054
				0.997014
				0.99535
				0.995491
				0.993479
				0.993015
			</DataArray>
			<DataArray type="Float64" Name="mach-number" Format="ascii">
				0.0362697
				0.0589415
				0.0988139
				0.0899417
				0.171889
				0.152515
				0.253115
				0.227383
				0.338025
				0.308005
				0.419436
				0.387784
				0.4876
				0.458399
				0.531426
				0.510244
				0.542514
				0.534767
				0.519989
				0.528312
				0.470244
				0.493755
				0.401832
				0.437841
				0.321709
				0.367597
				0.234599
				0.288895
				0.143841
				0.207173
				0.0544508
				0.131439
				0.0544509
				0.0923072
				0.143841
				0.131439
				0.234599
				0.207173
				0.321709
				0.288895
				0.401832
				0.367597
				0.470244
				0.437841
				0.519989
				0.493755
				0.542514
				0.528312
				0.531426
				0.534767
				0.4876
				0.510244
				0.419435
				0.458399
				0.338025
				0.387784
				0.253115
				0.308005
				0.171889
				0.227383
				0.0988139
				0.152515
				0.0362697
				0.0899417
				0.139525
				0.0950153
				0.179307
				0.120409
				0.238684
				0.177663
				0.303445
				0.246812
				0.366022
				0.318278
				0.420859
				0.385357
				0.462583
				0.441671
				0.486071
				0.480731
				0.488
				0.496975
				0.468651
				0.488138
				0.431872
				0.45662
				0.383243
				0.40793
				0.328603
				0.348178
				0.274034
				0.283072
				0.227145
				0.218907
				0.198523
				0.165975
				0.198523
				0.143496
				0.227145
				0.165975
				0.274035
				0.218907
				0.328603
				0.283072
				0.383243
				0.348178
				0.431872
				0.40793
				0.468651
				0.45662
				0.488
				0.488138
				0.486071
				0.496975
				0.462583
				0.480731
				0.420859
				0.441671
				0.366022
				0.385357
				0.303445
				0.318278
				0.238684
				0.246812
				0.179307
				0.177663
				0.139525
				0.120409
				0.179167
				0.204945
				0.214415
				0.222924
				0.266737
				0.265508
				0.320831
				0.314404
				0.369108
				0.35935
				0.407965
				0.396532
				0.434944
				0.424148
				0.44788
				0.44051
				0.445508
				0.444148
				0.428578
				0.434856
				0.400063
				0.414445
				0.364269
				0.386389
				0.325915
				0.354879
				0.289854
				0.324146
				0.261207
				0.298225
				0.245093
				0.280785
				0.245093
				0.274613
				0.261207
				0.280785
				0.289854
				0.298225
				0.325915
				0.324146
				0.364269
				0.354879
				0.400063
				0.386389
				0.428578
				0.414445
				0.445508
				0.434856
				0.44788
				0.444148
				0.434944
				0.44051
				0.407965
				0.424148
				0.369108
				0.396532
				0.320831
				0.35935
				0.266737
				0.314404
				0.214415
				0.265508
				0.179167
				0.222924
				0.267222
				0.241839
				0.293843
				0.257628
				0.329932
				0.294331
				0.361814
				0.334014
				0.385708
				0.367091
				0.402092
				0.391552
				0.411579
				0.407673
				0.414213
				0.415601
				0.410088
				0.415265
				0.400056
				0.407107
				0.385891
				0.392617
				0.369891
				0.3742
				0.354333
				0.354618
				0.341106
				0.336471
				0.33158
				0.321912
				0.326614
				0.312526
				0.326614
				0.309288
				0.33158
				0.312526
				0.341106
				0.321912
				0.354333
				0.336471
				0.369891
				0.354618
				0.385891
				0.3742
				0.400056
				0.392617
				0.410088
				0.407107
				0.414213
				0.415265
				0.411579
				0.415601
				0.402092
				0.407673
				0.385708
				0.391552
				0.361814
				0.367091
				0.329932
				0.334014
				0.293843
				0.294331
				0.267222
				0.257628
				0.295101
				0.305585
				0.317732
				0.317451
				0.346879
				0.342966
				0.3702
				0.36648
				0.385497
				0.382323
				0.394525
				0.391777
				0.398731
				0.39675
				0.398737
				0.398124
				0.39496
				0.396254
				0.388123
				0.391575
				0.379365
				0.384888
				0.370026
				0.37727
				0.361333
				0.369799
				0.354204
				0.363335
				0.349212
				0.358441
				0.346657
				0.355418
				0.346657
				0.354399
				0.349212
				0.355418
				0.354204
				0.358441
				0.361333
				0.363335
				0.370026
				0.369799
				0.379365
				0.37727
				0.388123
				0.384888
				0.39496
				0.391575
				0.398737
				0.396254
				0.398731
				0.398124
				0.394525
				0.39675
				0.385497
				0.391777
				0.3702
				0.382323
				0.346879
				0.36648
				0.317732
				0.342966
				0.295101
				0.317451
				0.335916
				0.324932
				0.35173
				0.334839
				0.369739
				0.355485
				0.381455
				0.373107
				0.387377
				0.383536
				0.389978
				0.388765
				0.390573
				0.390896
				0.38963
				0.390881
				0.387414
				0.389088
				0.384259
				0.385875
				0.380641
				0.381754
				0.37705
				0.377331
				0.373883
				0.373165
				0.37139
				0.36967
				0.369696
				0.367084
				0.368844
				0.365513
				0.368844
				0.364988
				0.369696
				0.365513
				0.37139
				0.367084
				0.373883
				0.36967
				0.37705
				0.373165
				0.380641
				0.377331
				0.384259
				0.381754
				0.387414
				0.385875
				0.38963
				0.389088
				0.390573
				0.390881
				0.389978
				0.390896
				0.387377
				0.388765
				0.381455
				0.383536
				0.369739
				0.373107
				0.35173
				0.355485
				0.335916
				0.334839
				0.347298
				0.349967
				0.360191
				0.357028
				0.374218
				0.370708
				0.382494
				0.380676
				0.386039
				0.385242
				0.387235
				0.386843
				0.387246
				0.387129
				0.386447
				0.386664
				0.38488
				0.385568
				0.382794
				0.383961
				0.380555
				0.382097
				0.378436
				0.38024
				0.376632
				0.378581
				0.375252
				0.377241
				0.374334
				0.376275
				0.373878
				0.375698
				0.373878
				0.375507
				0.374334
				0.375698
				0.375252
				0.376275
				0.376632
				0.377241
				0.378436
				0.378581
				0.380555
				0.38024
				0.382794
				0.382097
				0.38488
				0.383961
				0.386447
				0.385568
				0.387246
				0.386664
				0.387235
				0.387129
				0.386039
				0.386843
				0.382494
				0.385242
				0.374218
				0.380676
				0.360191
				0.370708
				0.347298
				0.357028
				0.359453
				0.355932
				0.369231
				0.361915
				0.378949
				0.373296
				0.383711
				0.381158
				0.385151
				0.384359
				0.385358
				0.38525
				0.385161
				0.385305
				0.384797
				0.385012
				0.383537
				0.384529
				0.382218
				0.382916
				0.381052
				0.381482
				0.380079
				0.380245
				0.379317
				0.379242
				0.378764
				0.378487
				0.378409
				0.377969
				0.378236
				0.377671
				0.378236
				0.377574
				0.378409
				0.377671
				0.378764
				0.377969
				0.379317
				0.378487
				0.380079
				0.379242
				0.381052
				0.380245
				0.382218
				0.381482
				0.383537
				0.382916
				0.384797
				0.384529
				0.385161
				0.385012
				0.385358
				0.385305
				0.385151
				0.38525
				0.383711
				0.384359
				0.378949
				0.381158
				0.369231
				0.373296
				0.359453
				0.361915
			</DataArray>
			<DataArray type="Float64" Name="pressure" Format="ascii">
				4.676
				4.69233
				4.64202
				4.6779
				4.57399
				4.63503
				4.4737
				4.56497
				4.34944
				4.47225
				4.2212
				4.36937
				4.12227
				4.27998
				4.09349
				4.23656
				4.16688
				4.27015
				4.34615
				4.39425
				4.60396
				4.59635
				4.89803
				4.84552
				5.18637
				5.10564
				5.4339
				5.34375
				5.61389
				5.53323
				5.7084
				5.65472
				5.7084
				5.69653
				5.61389
				5.65472
				5.4339
				5.53323
				5.18637
				5.34375
				4.89803
				5.10564
				4.60396
				4.84552
				4.34615
				4.59635
				4.16688
				4.39425
				4.09349
				4.27015
				4.12227
				4.23656
				4.2212
				4.27998
				4.34944
				4.36937
				4.4737
				4.47225
				4.57399
				4.56497
				4.64202
				4.63503
				4.676
				4.6779
				4.81648
				4.80307
				4.80151
				4.79301
				4.77052
				4.76218
				4.72315
				4.7101
				4.66358
				4.63962
				4.60359
				4.56011
				4.56218
				4.48927
				4.5608
				4.45166
				4.61394
				4.47124
				4.72079
				4.5587
				4.86549
				4.70397
				5.02527
				4.88235
				5.1782
				5.066
				5.30684
				5.23123
				5.3989
				5.36057
				5.44674
				5.44249
				5.44674
				5.47049
				5.3989
				5.44249
				5.30684
				5.36057
				5.1782
				5.23122
				5.02527
				5.066
				4.86549
				4.88235
				4.72079
				4.70397
				4.61394
				4.5587
				4.5608
				4.47124
				4.56218
				4.45166
				4.60359
				4.48927
				4.66358
				4.56011
				4.72315
				4.63962
				4.77052
				4.7101
				4.80151
				4.76218
				4.81648
				4.79301
				4.87842
				4.8968
				4.86659
				4.89312
				4.84285
				4.88118
				4.80871
				4.85958
				4.76856
				4.82938
				4.73043
				4.79612
				4.7059
				4.76941
				4.70763
				4.76059
				4.74381
				4.77891
				4.81304
				4.82701
				4.90459
				4.89915
				5.0036
				4.9839
				5.09637
				5.06876
				5.17278
				5.14339
				5.22649
				5.20072
				5.25407
				5.23651
				5.25407
				5.24865
				5.22649
				5.23651
				5.17278
				5.20072
				5.09637
				5.14339
				5.0036
				5.06876
				4.90459
				4.9839
				4.81304
				4.89915
				4.74381
				4.82701
				4.70763
				4.77891
				4.7059
				4.76059
				4.73043
				4.76941
				4.76856
				4.79612
				4.80871
				4.82938
				4.84285
				4.85958
				4.86659
				4.88118
				4.87842
				4.89312
				4.92506
				4.9093
				4.92249
				4.90701
				4.91551
				4.89978
				4.90332
				4.88754
				4.88822
				4.87172
				4.87493
				4.85557
				4.86894
				4.84414
				4.87496
				4.84332
				4.89514
				4.8576
				4.92791
				4.88775
				4.96851
				4.93001
				5.01087
				4.97779
				5.04959
				5.02425
				5.0809
				5.0641
				5.1026
				5.09406
				5.11365
				5.11247
				5.11365
				5.11866
				5.1026
				5.11247
				5.0809
				5.09406
				5.04959
				5.0641
				5.01087
				5.02425
				4.96851
				4.97779
				4.92791
				4.93001
				4.89514
				4.88775
				4.87496
				4.8576
				4.86894
				4.84332
				4.87493
				4.84414
				4.88822
				4.85557
				4.90332
				4.87172
				4.91551
				4.88754
				4.92249
				4.89978
				4.92506
				4.90701
				4.92063
				4.93411
				4.92085
				4.93449
				4.9198
				4.93431
				4.91659
				4.93164
				4.91207
				4.92668
				4.90849
				4.92165
				4.90864
				4.91931
				4.91483
				4.92196
				4.92789
				4.93078
				4.94671
				4.94545
				4.96867
				4.96417
				4.9907
				4.98431
				5.01025
				5.00331
				5.02567
				5.01928
				5.03616
				5.03111
				5.04144
				5.03832
				5.04144
				5.04073
				5.03616
				5.03832
				5.02567
				5.03111
				5.01025
				5.01928
				4.9907
				5.00331
				4.96867
				4.98431
				4.94671
				4.96417
				4.92789
				4.94545
				4.91483
				4.93078
				4.90864
				4.92196
				4.90849
				4.91931
				4.91207
				4.92165
				4.91659
				4.92668
				4.9198
				4.93164
				4.92085
				4.93431
				4.92063
				4.93449
				4.94066
				4.92969
				4.94209
				4.93116
				4.94304
				4.93406
				4.94247
				4.93598
				4.94118
				4.93631
				4.94065
				4.93611
				4.94216
				4.93692
				4.94652
				4.94002
				4.9535
				4.94599
				4.96242
				4.95459
				4.9722
				4.96485
				4.98166
				4.97542
				4.98987
				4.98511
				4.99625
				4.99307
				5.00056
				4.99887
				5.00272
				5.00236
				5.00272
				5.00352
				5.00056
				5.00236
				4.99625
				4.99887
				4.98987
				4.99307
				4.98166
				4.98511
				4.9722
				4.97542
				4.96242
				4.96485
				4.9535
				4.95459
				4.94652
				4.94599
				4.94216
				4.94002
				4.94065
				4.93692
				4.94118
				4.93611
				4.94247
				4.93631
				4.94304
				4.93598
				4.94209
				4.93406
				4.94066
				4.93116
				4.93969
				4.94745
				4.94256
				4.94822
				4.94562
				4.94954
				4.9472
				4.95005
				4.9477
				4.9497
				4.94819
				4.94929
				4.94955
				4.94964
				4.95226
				4.95136
				4.95638
				4.95521
				4.96189
				4.96029
				4.9678
				4.96589
				4.97339
				4.97142
				4.97815
				4.97633
				4.98182
				4.98028
				4.98427
				4.98313
				4.98549
				4.98483
				4.98549
				4.98539
				4.98427
				4.98483
				4.98182
				4.98313
				4.97815
				4.98028
				4.97339
				4.97633
				4.9678
				4.97142
				4.96189
				4.96589
				4.95638
				4.96029
				4.95226
				4.95521
				4.94955
				4.95136
				4.94819
				4.94964
				4.9477
				4.94929
				4.9472
				4.9497
				4.94562
				4.95005
				4.94256
				4.94954
				4.93969
				4.94822
				4.95643
				4.94995
				4.95641
				4.95103
				4.95568
				4.9528
				4.95409
				4.95333
				4.95218
				4.95259
				4.9505
				4.95146
				4.94936
				4.95063
				4.94887
				4.95051
				4.95608
				4.95145
				4.96195
				4.95798
				4.96705
				4.9637
				4.97129
				4.96864
				4.97463
				4.97269
				4.97707
				4.97581
				4.97866
				4.97799
				4.97945
				4.97927
				4.97945
				4.9797
				4.97866
				4.97927
				4.97707
				4.97799
				4.97463
				4.97581
				4.97129
				4.97269
				4.96705
				4.96864
				4.96195
				4.9637
				4.95608
				4.95798
				4.94887
				4.95145
				4.94936
				4.95051
				4.9505
				4.95063
				4.95218
				4.95146
				4.95409
				4.95259
				4.95568
				4.95333
				4.95641
				4.9528
				4.95643
				4.95103
			</DataArray>
			<DataArray type="Float64" Name="velocity" NumberOfComponents="3" Format="ascii">
				0.0582428 -0.077723 0
				0.157885 -3.30961e-08 0
				0.128843 -0.230426 0
				0.196874 -0.138371 0
				0.271196 -0.368361 0
				0.309108 -0.2644 0
				0.4799 -0.467823 0
				0.483024 -0.362294 0
				0.735644 -0.500682 0
				0.701695 -0.412081 0
				1.00308 -0.445717 0
				0.939568 -0.394657 0
				1.23418 -0.298309 0
				1.16087 -0.299795 0
				1.3783 -0.0770224 0
				1.32387 -0.133347 0
				1.39994 0.176409 0
				1.39213 0.078434 0
				1.29599 0.409294 0
				1.35039 0.292904 0
				1.09538 0.577153 0
				1.21223 0.466081 0
				0.842106 0.654754 0
				1.01126 0.567718 0
				0.580389 0.635465 0
				0.786531 0.585522 0
				0.348373 0.526838 0
				0.573501 0.521879 0
				0.176167 0.346829 0
				0.40067 0.389409 0
				0.0846844 0.120889 0
				0.288666 0.207558 0
				0.0846844 -0.120889 0
				0.249943 -1.62545e-07 0
				0.176168 -0.346829 0
				0.288666 -0.207558 0
				0.348374 -0.526839 0
				0.400671 -0.389409 0
				0.580389 -0.635465 0
				0.573501 -0.521879 0
				0.842106 -0.654754 0
				0.786531 -0.585521 0
				1.09538 -0.577153 0
				1.01126 -0.567718 0
				1.29599 -0.409293 0
				1.21223 -0.466081 0
				1.39994 -0.176409 0
				1.35039 -0.292903 0
				1.3783 0.0770224 0
				1.39213 -0.0784339 0
				1.23418 0.298309 0
				1.32387 0.133347 0
				1.00308 0.445716 0
				1.16087 0.299796 0
				0.735644 0.500683 0
				0.939567 0.394657 0
				0.4799 0.467823 0
				0.701695 0.412081 0
				0.271196 0.368361 0
				0.483025 0.362294 0
				0.128843 0.230426 0
				0.309108 0.2644 0
				0.0582429 0.0777229 0
				0.196874 0.138371 0
				0.369624 -0.0567593 0
				0.254814 -4.9511e-08 0
				0.45258 -0.158197 0
				0.297074 -0.125527 0
				0.592819 -0.229744 0
				0.413541 -0.232267 0
				0.760761 -0.262838 0
				0.581227 -0.304381 0
				0.933331 -0.25248 0
				0.775294 -0.32901 0
				1.09022 -0.196196 0
				0.9706 -0.297524 0
				1.21054 -0.0969479 0
				1.14021 -0.208576 0
				1.27442 0.0334407 0
				1.25664 -0.0709151 0
				1.26949 0.172951 0
				1.2974 0.0945457 0
				1.19824 0.294392 0
				1.25438 0.256919 0
				1.07818 0.375142 0
				1.13935 0.384817 0
				0.934084 0.403452 0
				0.978429 0.456723 0
				0.790127 0.378312 0
				0.801581 0.464335 0
				0.665967 0.306313 0
				0.635687 0.410237 0
				0.575773 0.198589 0
				0.502021 0.304451 0
				0.52852 0.0686946 0
				0.41576 0.161793 0
				0.52852 -0.0686946 0
				0.385997 -5.12879e-08 0
				0.575773 -0.198589 0
				0.415761 -0.161793 0
				0.665967 -0.306314 0
				0.50202 -0.30445 0
				0.790128 -0.378312 0
				0.635688 -0.410238 0
				0.934084 -0.403452 0
				0.801581 -0.464335 0
				1.07818 -0.375142 0
				0.978429 -0.456723 0
				1.19824 -0.294392 0
				1.13935 -0.384817 0
				1.26949 -0.172951 0
				1.25438 -0.256919 0
				1.27442 -0.0334407 0
				1.2974 -0.0945456 0
				1.21054 0.0969481 0
				1.25664 0.0709151 0
				1.09021 0.196196 0
				1.14021 0.208577 0
				0.933331 0.25248 0
				0.9706 0.297524 0
				0.760761 0.262838 0
				0.775294 0.32901 0
				0.592819 0.229744 0
				0.581228 0.304381 0
				0.45258 0.158197 0
				0.413541 0.232267 0
				0.369623 0.0567591 0
				0.297074 0.125527 0
				0.477411 -0.0465545 0
				0.548656 1.04073e-07 0
				0.558432 -0.126343 0
				0.590813 -0.0780186 0
				0.687635 -0.174845 0
				0.695296 -0.130244 0
				0.829132 -0.187895 0
				0.820994 -0.149618 0
				0.960419 -0.167408 0
				0.940251 -0.140533 0
				1.06841 -0.116789 0
				1.04083 -0.107362 0
				1.14316 -0.0413005 0
				1.1159 -0.0533105 0
				1.17617 0.0499503 0
				1.15906 0.0165953 0
				1.16302 0.142817 0
				1.16514 0.0930666 0
				1.10746 0.220632 0
				1.13401 0.163027 0
				1.02173 0.269722 0
				1.07289 0.213647 0
				0.922316 0.283309 0
				0.994435 0.23676 0
				0.825019 0.261581 0
				0.912391 0.230354 0
				0.742356 0.209573 0
				0.838345 0.197311 0
				0.682967 0.134953 0
				0.780546 0.14331 0
				0.652067 0.0465266 0
				0.744104 0.0751786 0
				0.652067 -0.0465266 0
				0.731687 -4.18864e-08 0
				0.682967 -0.134953 0
				0.744104 -0.0751786 0
				0.742356 -0.209573 0
				0.780546 -0.14331 0
				0.825019 -0.261581 0
				0.838345 -0.197311 0
				0.922316 -0.283309 0
				0.912391 -0.230354 0
				1.02173 -0.269722 0
				0.994435 -0.23676 0
				1.10746 -0.220632 0
				1.07289 -0.213647 0
				1.16302 -0.142817 0
				1.13401 -0.163027 0
				1.17617 -0.0499503 0
				1.16514 -0.0930666 0
				1.14316 0.0413006 0
				1.15906 -0.0165953 0
				1.06841 0.116789 0
				1.1159 0.0533105 0
				0.960419 0.167408 0
				1.04083 0.107362 0
				0.829132 0.187895 0
				0.940251 0.140533 0
				0.687635 0.174845 0
				0.820994 0.149618 0
				0.558432 0.126343 0
				0.695296 0.130244 0
				0.477412 0.0465546 0
				0.590813 0.0780185 0
				0.712311 -0.026922 0
				0.645647 -1.30463e-08 0
				0.779024 -0.0665221 0
				0.684426 -0.0572323 0
				0.871459 -0.0786494 0
				0.77682 -0.0909123 0
				0.954412 -0.0702459 0
				0.879384 -0.0968653 0
				1.0171 -0.0501354 0
				0.966442 -0.0824863 0
				1.0601 -0.0220325 0
				1.03144 -0.0541895 0
				1.08458 0.0121783 0
				1.07414 -0.0156906 0
				1.09034 0.0493398 0
				1.09424 0.0294078 0
				1.07773 0.0842422 0
				1.09128 0.0756482 0
				1.04958 0.110957 0
				1.0669 0.115823 0
				1.01147 0.12503 0
				1.0262 0.1431 0
				0.97004 0.124799 0
				0.97687 0.15336 0
				0.931271 0.111239 0
				0.926884 0.146008 0
				0.899465 0.0869393 0
				0.882748 0.123209 0
				0.877216 0.0550847 0
				0.848855 0.0885887 0
				0.865835 0.0188382 0
				0.827728 0.0461978 0
				0.865835 -0.0188382 0
				0.820572 -1.17676e-08 0
				0.877216 -0.0550847 0
				0.827728 -0.0461979 0
				0.899465 -0.0869393 0
				0.848855 -0.0885887 0
				0.931271 -0.111239 0
				0.882748 -0.123209 0
				0.97004 -0.124799 0
				0.926884 -0.146008 0
				1.01147 -0.12503 0
				0.97687 -0.15336 0
				1.04958 -0.110957 0
				1.0262 -0.1431 0
				1.07773 -0.0842422 0
				1.0669 -0.115823 0
				1.09034 -0.0493397 0
				1.09128 -0.0756481 0
				1.08458 -0.0121783 0
				1.09424 -0.0294078 0
				1.0601 0.0220325 0
				1.07414 0.0156906 0
				1.0171 0.0501354 0
				1.03144 0.0541895 0
				0.954412 0.0702459 0
				0.966442 0.0824863 0
				0.871459 0.0786494 0
				0.879384 0.0968653 0
				0.779024 0.0665221 0
				0.77682 0.0909123 0
				0.712311 0.026922 0
				0.684426 0.0572322 0
				0.784613 -0.018774 0
				0.812684 7.91779e-09 0
				0.841972 -0.0443364 0
				0.842648 -0.0303272 0
				0.916757 -0.047885 0
				0.907685 -0.0406112 0
				0.977154 -0.0372215 0
				0.968141 -0.0335641 0
				1.01694 -0.0207689 0
				1.00904 -0.0202217 0
				1.04034 -0.00160949 0
				1.03343 -0.0053346 0
				1.05097 0.0192554 0
				1.04612 0.0106148 0
				1.05042 0.0403263 0
				1.04935 0.0272332 0
				1.03987 0.0589709 0
				1.04406 0.0430035 0
				1.02148 0.0722399 0
				1.03149 0.0555567 0
				0.998506 0.0780468 0
				1.01393 0.0627652 0
				0.974578 0.0758143 0
				0.994299 0.0636047 0
				0.9528 0.0663342 0
				0.975391 0.0582899 0
				0.935289 0.051189 0
				0.959299 0.047892 0
				0.923216 0.0321719 0
				0.947275 0.0338197 0
				0.917096 0.0109592 0
				0.939919 0.0174518 0
				0.917096 -0.0109592 0
				0.937451 -8.30546e-09 0
				0.923216 -0.0321719 0
				0.939919 -0.0174519 0
				0.935289 -0.051189 0
				0.947275 -0.0338197 0
				0.9528 -0.0663342 0
				0.959299 -0.047892 0
				0.974578 -0.0758143 0
				0.975391 -0.0582899 0
				0.998506 -0.0780468 0
				0.994299 -0.0636047 0
				1.02148 -0.0722399 0
				1.01393 -0.0627652 0
				1.03987 -0.0589709 0
				1.03149 -0.0555567 0
				1.05042 -0.0403263 0
				1.04406 -0.0430035 0
				1.05097 -0.0192554 0
				1.04935 -0.0272332 0
				1.04034 0.0016095 0
				1.04612 -0.0106148 0
				1.01694 0.0207689 0
				1.03343 0.00533461 0
				0.977154 0.0372215 0
				1.00904 0.0202217 0
				0.916757 0.047885 0
				0.968141 0.0335641 0
				0.841972 0.0443365 0
				0.907685 0.0406112 0
				0.784613 0.018774 0
				0.842648 0.0303271 0
				0.890575 -0.0102105 0
				0.861987 -4.14706e-08 0
				0.930749 -0.0207777 0
				0.887146 -0.0194505 0
				0.97671 -0.0161732 0
				0.939846 -0.023584 0
				1.00667 -0.00634394 0
				0.985059 -0.0157749 0
				1.02181 0.00236175 0
				1.01188 -0.00528779 0
				1.02841 0.00967685 0
				1.02531 0.00446953 0
				1.02986 0.0163794 0
				1.03071 0.0135963 0
				1.02735 0.0225549 0
				1.03054 0.0223142 0
				1.02159 0.0277894 0
				1.02577 0.0302137 0
				1.01345 0.0310574 0
				1.01737 0.0361133 0
				1.00419 0.0316755 0
				1.00671 0.0389427 0
				0.99508 0.0295832 0
				0.995398 0.0382759 0
				0.987097 0.0251807 0
				0.984849 0.0343475 0
				0.980854 0.0190663 0
				0.976075 0.0278101 0
				0.97663 0.0118402 0
				0.96963 0.0194465 0
				0.974514 0.00400981 0
				0.965733 0.00997778 0
				0.974514 -0.00400982 0
				0.964433 -7.46654e-09 0
				0.97663 -0.0118402 0
				0.965733 -0.00997779 0
				0.980854 -0.0190663 0
				0.96963 -0.0194465 0
				0.987097 -0.0251807 0
				0.976075 -0.0278102 0
				0.99508 -0.0295832 0
				0.984849 -0.0343475 0
				1.00419 -0.0316755 0
				0.995398 -0.0382759 0
				1.01345 -0.0310574 0
				1.00671 -0.0389427 0
				1.02159 -0.0277894 0
				1.01737 -0.0361133 0
				1.02735 -0.0225549 0
				1.02577 -0.0302137 0
				1.02986 -0.0163794 0
				1.03054 -0.0223142 0
				1.02841 -0.00967684 0
				1.03071 -0.0135963 0
				1.02181 -0.00236171 0
				1.02531 -0.00446952 0
				1.00667 0.00634395 0
				1.01188 0.00528782 0
				0.97671 0.0161732 0
				0.985059 0.0157749 0
				0.930749 0.0207777 0
				0.939846 0.023584 0
				0.890575 0.0102104 0
				0.887145 0.0194504 0
				0.91918 -0.00587257 0
				0.926283 2.24178e-08 0
				0.952033 -0.0105278 0
				0.944227 -0.00921921 0
				0.987839 -0.00503229 0
				0.979048 -0.00716885 0
				1.00898 0.00259174 0
				1.00441 0.000801241 0
				1.01801 0.0079926 0
				1.01599 0.00699197 0
				1.02103 0.0115223 0
				1.02002 0.0104296 0
				1.02103 0.0140707 0
				1.02071 0.0123931 0
				1.01899 0.0160139 0
				1.01951 0.0135326 0
				1.01501 0.0179275 0
				1.01675 0.014068 0
				1.00972 0.0190801 0
				1.01272 0.0148993 0
				1.00407 0.0188556 0
				1.00805 0.0151989 0
				0.998738 0.0172119 0
				1.0034 0.0144017 0
				0.994218 0.0144027 0
				0.999256 0.0125951 0
				0.990771 0.0107705 0
				0.995922 0.0100147 0
				0.988484 0.00663331 0
				0.993525 0.00691881 0
				0.987351 0.00223712 0
				0.992096 0.00352547 0
				0.987351 -0.00223712 0
				0.991622 -4.6415e-10 0
				0.988484 -0.0066333 0
				0.992096 -0.00352546 0