<VTKFile type="UnstructuredGrid" version="0.1" byte_order="LittleEndian">
<UnstructuredGrid>
	<Piece NumberOfPoints="288" NumberOfCells="512">
		<CellData Scalars="density" Vectors="velocity">
			<DataArray type="Float64" Name="density" Format="ascii">
				0.98036
				0.973236
				0.978834
				0.971203
				0.966744
				0.965279
				0.944089
				0.959203
				0.9136
				0.94425
				0.874124
				0.91536
				0.833057
				0.880131
				0.807648
				0.853184
				0.813935
				0.845432
				0.840526
				0.87815
				0.890603
				0.901019
				0.943264
				0.937457
				0.991567
				0.981313
				1.03395
				1.02507
				1.06705
				1.05515
				1.08362
				1.06778
				1.08362
				1.07067
				1.06705
				1.06778
				1.03395
				1.05515
				0.991567
				1.02507
				0.943264
				0.981313
				0.890603
				0.937457
				0.840525
				0.901019
				0.813935
				0.87815
				0.807647
				0.845432
				0.833057
				0.853184
				0.874124
				0.880131
				0.9136
				0.915361
				0.944089
				0.94425
				0.966744
				0.959203
				0.978834
				0.965279
				0.98036
				0.971203
				0.982597
				0.986198
				0.981218
				0.995368
				0.990098
				0.9989
				0.985501
				0.988973
				0.972785
				0.97316
				0.953486
				0.951849
				0.932654
				0.929335
				0.924563
				0.910505
				0.929045
				0.901136
				0.941045
				0.910206
				0.958232
				0.932932
				0.982549
				0.961309
				1.00814
				0.989313
				1.0284
				1.01424
				1.04025
				1.03468
				1.04481
				1.04842
				1.04481
				1.0532
				1.04025
				1.04842
				1.0284
				1.03468
				1.00814
				1.01424
				0.982549
				0.989313
				0.958232
				0.961309
				0.941045
				0.932932
				0.929045
				0.910206
				0.924563
				0.901136
				0.932654
				0.910505
				0.953486
				0.929335
				0.972785
				0.951849
				0.985501
				0.97316
				0.990098
				0.988973
				0.981218
				0.9989
				0.982597
				0.995368
				0.989489
				0.986636
				0.999621
				0.989363
				0.997757
				0.996371
				0.990412
				0.996121
				0.98073
				0.990224
				0.970217
				0.981734
				0.960757
				0.972213
				0.955397
				0.966962
				0.956746
				0.966795
				0.964915
				0.971124
				0.977991
				0.978544
				0.992661
				0.989482
				1.00601
				1.0018
				1.01739
				1.0127
				1.02603
				1.02055
				1.03064
				1.02503
				1.03064
				1.02643
				1.02603
				1.02503
				1.01739
				1.02055
				1.00601
				1.0127
				0.992661
				1.0018
				0.977991
				0.989482
				0.964915
				0.978544
				0.956746
				0.971123
				0.955397
				0.966795
				0.960757
				0.966962
				0.970217
				0.972213
				0.98073
				0.981734
				0.990412
				0.990224
				0.997757
				0.996121
				0.999621
				0.996371
				0.989489
				0.989363
				0.989807
				0.986873
				0.996772
				0.994821
				1.00026
				1.00134
				0.996579
				0.997472
				0.993174
				0.992866
				0.989361
				0.988369
				0.986635
				0.984165
				0.985886
				0.981306
				0.986834
				0.980852
				0.98974
				0.983423
				0.994159
				0.988525
				0.999234
				0.994864
				1.00419
				1.00115
				1.00829
				1.00675
				1.01109
				1.01137
				1.0125
				1.01447
				1.0125
				1.01557
				1.01109
				1.01447
				1.00829
				1.01137
				1.00419
				1.00675
				0.999234
				1.00115
				0.994159
				0.994864
				0.98974
				0.988525
				0.986834
				0.983423
				0.985886
				0.980852
				0.986635
				0.981306
				0.989361
				0.984165
				0.993174
				0.988368
				0.996579
				0.992866
				1.00026
				0.997472
				0.996772
				1.00134
				0.989807
				0.994821
				0.987699
				0.99097
				0.99827
				0.994656
				0.999243
				0.999124
				0.996693
				0.998022
				0.99513
				0.996689
				0.993573
				0.99537
				0.992272
				0.994586
				0.991803
				0.994428
				0.992514
				0.994492
				0.994281
				0.99502
				0.996691
				0.996516
				0.999324
				0.998695
				1.00176
				1.00083
				1.00377
				1.00255
				1.00516
				1.00366
				1.0059
				1.00426
				1.0059
				1.00445
				1.00516
				1.00426
				1.00377
				1.00366
				1.00176
				1.00255
				0.999324
				1.00083
				0.996691
				0.998695
				0.994281
				0.996516
				0.992514
				0.99502
				0.991803
				0.994492
				0.992272
				0.994428
				0.993573
				0.994586
				0.99513
				0.99537
				0.996693
				0.996689
				0.999243
				0.998022
				0.99827
				0.999124
				0.987699
				0.994656
				0.99388
				0.990993
				0.997986
				0.996914
				0.998612
				0.99783
				0.999026
				0.998768
				0.999084
				0.998515
				0.99883
				0.998022
				0.998524
				0.997522
				0.998435
				0.997258
				0.998728
				0.997375
				0.999389
				0.997962
				1.00023
				0.998972
				1.00111
				1.00019
				1.00195
				1.00137
				1.00265
				1.00239
				1.00314
				1.00316
				1.00337
				1.00365
				1.00337
				1.00382
				1.00314
				1.00365
				1.00265
				1.00316
				1.00195
				1.00239
				1.00111
				1.00137
				1.00023
				1.00019
				0.999389
				0.998972
				0.998728
				0.997962
				0.998435
				0.997375
				0.998524
				0.997258
				0.99883
				0.997522
				0.999084
				0.998022
				0.999026
				0.998515
				0.998612
				0.998768
				0.997986
				0.99783
				0.99388
				0.996914
				0.992044
				0.992051
				0.998378
				0.996437
				0.999947
				0.999924
				0.999841
				1.00041
				0.999716
				1.00021
				0.999512
				0.999978
				0.999358
				0.999777
				0.999348
				0.999687
				0.99954
				0.999747
				0.999903
				0.999945
				1.00036
				1.00025
				1.00084
				1.00061
				1.00129
				1.00096
				1.00165
				1.00126
				1.0019
				1.00148
				1.00202
				1.00162
				1.00202
				1.00166
				1.0019
				1.00162
				1.00165
				1.00148
				1.00129
				1.00126
				1.00084
				1.00096
				1.00036
				1.00061
				0.999903
				1.00025
				0.99954
				0.999945
				0.999348
				0.999747
				0.999358
				0.999687
				0.999512
				0.999777
				0.999716
				0.999978
				0.999841
				1.00021
				0.999947
				1.00041
				0.998378
				0.999924
				0.992044
				0.996437
				0.995729
				0.994412
				0.999607
				0.99815
				0.999925
				0.999949
				0.999763
				0.999657
				0.999758
				0.999629
				0.99983
				0.999666
				0.999969
				0.999742
				1.00016
				0.999882
				1.0004
				1.00009
				1.00065
				1.00036
				1.00091
				1.00065
				1.00113
				1.00095
				1.00131
				1.00121
				1.00144
				1.00141
				1.00152
				1.00156
				1.00156
				1.00165
				1.00156
				1.00168
				1.00152
				1.00165
				1.00144
				1.00156
				1.00131
				1.00141
				1.00113
				1.00121
				1.00091
				1.00095
				1.00065
				1.00065
				1.0004
				1.00036
				1.00016
				1.00009
				0.999969
				0.999882
				0.99983
				0.999742
				0.999758
				0.999666
				0.999763
				0.999629
				0.999925
				0.999657
				0.999607
				0.999949
				0.995729
				0.99815
			</DataArray>
			<DataArray type="Float64" Name="mach-number" Format="ascii">
				0.0192524
				0.0147555
				0.0783854
				0.0592997
				0.187937
				0.155914
				0.308261
				0.264644
				0.428702
				0.37351
				0.543451
				0.477433
				0.643816
				0.570345
				0.707
				0.639964
				0.715706
				0.67394
				0.673676
				0.651732
				0.598331
				0.596418
				0.503362
				0.526108
				0.400038
				0.437924
				0.28882
				0.337602
				0.176819
				0.23564
				0.0753091
				0.14552
				0.0753092
				0.098829
				0.17682
				0.14552
				0.288821
				0.23564
				0.400038
				0.337603
				0.503362
				0.437924
				0.598331
				0.526109
				0.673676
				0.596418
				0.715706
				0.651732
				0.707001
				0.67394
				0.643817
				0.639965
				0.543451
				0.570345
				0.428702
				0.477433
				0.308261
				0.37351
				0.187937
				0.264644
				0.0783856
				0.155914
				0.0192526
				0.0592997
				0.100345
				0.0516711
				0.205864
				0.115474
				0.289509
				0.221688
				0.353102
				0.301762
				0.412042
				0.376237
				0.466351
				0.446244
				0.513561
				0.508249
				0.54161
				0.556378
				0.541316
				0.579752
				0.514311
				0.566503
				0.472261
				0.521874
				0.418843
				0.464209
				0.357771
				0.395668
				0.297398
				0.322312
				0.247344
				0.251514
				0.21787
				0.195911
				0.21787
				0.17343
				0.247344
				0.195911
				0.297398
				0.251514
				0.357772
				0.322312
				0.418843
				0.395668
				0.472262
				0.464209
				0.514311
				0.521874
				0.541316
				0.566503
				0.54161
				0.579752
				0.513561
				0.556378
				0.466351
				0.508249
				0.412043
				0.446244
				0.353102
				0.376237
				0.289509
				0.301762
				0.205863
				0.221688
				0.100345
				0.115474
				0.159969
				0.173966
				0.256903
				0.232935
				0.321886
				0.314727
				0.362276
				0.353656
				0.399505
				0.384289
				0.432704
				0.412262
				0.459872
				0.437121
				0.475501
				0.454129
				0.474508
				0.458864
				0.457057
				0.450211
				0.427754
				0.431019
				0.391175
				0.403896
				0.352655
				0.37317
				0.316638
				0.343243
				0.28797
				0.318074
				0.271991
				0.301175
				0.271992
				0.295176
				0.28797
				0.301175
				0.316638
				0.318074
				0.352655
				0.343243
				0.391175
				0.37317
				0.427755
				0.403896
				0.457057
				0.431019
				0.474508
				0.450211
				0.475502
				0.458864
				0.459872
				0.454129
				0.432704
				0.437121
				0.399505
				0.412262
				0.362276
				0.384289
				0.321887
				0.353656
				0.256903
				0.314727
				0.159968
				0.232935
				0.264877
				0.226406
				0.328826
				0.278399
				0.36041
				0.339534
				0.376849
				0.364174
				0.390463
				0.38264
				0.402364
				0.398952
				0.411088
				0.412461
				0.414906
				0.421381
				0.413008
				0.423438
				0.40565
				0.417769
				0.39401
				0.405288
				0.380238
				0.388553
				0.366517
				0.37059
				0.354695
				0.353793
				0.34604
				0.33994
				0.34147
				0.33088
				0.34147
				0.327728
				0.34604
				0.33088
				0.354695
				0.33994
				0.366517
				0.353793
				0.380238
				0.370591
				0.39401
				0.388553
				0.40565
				0.405288
				0.413008
				0.417769
				0.414906
				0.423438
				0.411088
				0.421381
				0.402364
				0.412461
				0.390463
				0.398952
				0.376849
				0.38264
				0.36041
				0.364174
				0.328826
				0.339534
				0.264877
				0.278398
				0.296951
				0.3049
				0.34705
				0.331843
				0.369722
				0.366312
				0.379129
				0.377368
				0.386867
				0.383816
				0.393223
				0.389187
				0.39768
				0.39317
				0.399346
				0.39514
				0.397795
				0.39491
				0.393241
				0.392564
				0.386384
				0.388175
				0.378565
				0.382425
				0.37105
				0.376487
				0.364681
				0.371151
				0.360199
				0.367017
				0.357929
				0.364438
				0.357929
				0.363569
				0.360199
				0.364438
				0.364681
				0.367017
				0.37105
				0.371151
				0.378565
				0.376487
				0.386384
				0.382425
				0.393241
				0.388175
				0.397795
				0.392564
				0.399346
				0.39491
				0.39768
				0.39514
				0.393223
				0.39317
				0.386867
				0.389187
				0.379129
				0.383816
				0.369722
				0.377368
				0.34705
				0.366312
				0.296951
				0.331843
				0.342934
				0.326979
				0.369289
				0.349919
				0.379546
				0.374527
				0.382867
				0.38072
				0.385057
				0.384169
				0.386543
				0.386961
				0.387301
				0.388819
				0.387202
				0.389545
				0.38614
				0.388978
				0.384179
				0.387107
				0.381667
				0.384161
				0.379032
				0.380665
				0.376604
				0.37719
				0.374612
				0.374133
				0.373207
				0.371775
				0.372482
				0.370292
				0.372482
				0.369787
				0.373207
				0.370292
				0.374612
				0.371775
				0.376604
				0.374133
				0.379032
				0.37719
				0.381667
				0.380666
				0.384179
				0.384161
				0.38614
				0.387107
				0.387202
				0.388978
				0.387301
				0.389545
				0.386543
				0.388819
				0.385057
				0.386961
				0.382867
				0.384169
				0.379546
				0.38072
				0.369289
				0.374527
				0.342934
				0.349919
				0.355395
				0.358024
				0.374146
				0.36786
				0.381294
				0.379982
				0.38268
				0.382628
				0.383494
				0.383028
				0.383936
				0.383207
				0.384101
				0.38325
				0.38389
				0.383124
				0.383201
				0.382714
				0.382089
				0.38199
				0.380736
				0.381043
				0.379349
				0.380015
				0.378108
				0.379045
				0.377119
				0.378231
				0.376434
				0.377625
				0.376078
				0.377252
				0.376078
				0.377125
				0.376434
				0.377252
				0.377119
				0.377625
				0.378108
				0.378231
				0.379349
				0.379045
				0.380736
				0.380015
				0.382089
				0.381043
				0.383201
				0.38199
				0.38389
				0.382714
				0.384101
				0.383124
				0.383936
				0.38325
				0.383494
				0.383207
				0.38268
				0.383028
				0.381294
				0.382628
				0.374146
				0.379982
				0.355395
				0.36786
				0.372827
				0.366066
				0.379674
				0.373556
				0.382273
				0.382163
				0.382222
				0.383157
				0.382044
				0.38292
				0.381867
				0.382697
				0.381657
				0.382469
				0.381362
				0.382175
				0.380963
				0.381748
				0.38048
				0.38118
				0.379958
				0.380514
				0.379456
				0.379826
				0.379022
				0.379196
				0.378684
				0.378676
				0.378457
				0.378295
				0.378343
				0.378064
				0.378343
				0.377987
				0.378457
				0.378064
				0.378684
				0.378295
				0.379022
				0.378676
				0.379456
				0.379196
				0.379958
				0.379826
				0.38048
				0.380514
				0.380963
				0.38118
				0.381362
				0.381748
				0.381657
				0.382175
				0.381867
				0.382469
				0.382044
				0.382697
				0.382222
				0.38292
				0.382273
				0.383157
				0.379674
				0.382163
				0.372827
				0.373556
			</DataArray>
			<DataArray type="Float64" Name="pressure" Format="ascii">
				4.98826
				4.94441
				4.97332
				4.92826
				4.86799
				4.8648
				4.68649
				4.78811
				4.45117
				4.648
				4.1686
				4.43107
				3.88813
				4.18557
				3.71645
				4.004
				3.7415
				3.94719
				3.91221
				4.13218
				4.22937
				4.29804
				4.57661
				4.53656
				4.90228
				4.83019
				5.1938
				5.12692
				5.42405
				5.34052
				5.54849
				5.43873
				5.54849
				5.4633
				5.42405
				5.43873
				5.1938
				5.34052
				4.90228
				5.12692
				4.57661
				4.83019
				4.22937
				4.53656
				3.9122
				4.29804
				3.7415
				4.13218
				3.71645
				3.94719
				3.88813
				4.004
				4.1686
				4.18557
				4.45117
				4.43107
				4.68649
				4.648
				4.86799
				4.78811
				4.97332
				4.8648
				4.98826
				4.92826
				4.99578
				5.02496
				4.94244
				5.06779
				4.94422
				5.03396
				4.88917
				4.93463
				4.78729
				4.80637
				4.65122
				4.65193
				4.50943
				4.49475
				4.44902
				4.36418
				4.47586
				4.29744
				4.56011
				4.35378
				4.67688
				4.50747
				4.83786
				4.69573
				5.01189
				4.88852
				5.15441
				5.06357
				5.2404
				5.20823
				5.27408
				5.30422
				5.27408
				5.33788
				5.2404
				5.30422
				5.15441
				5.20823
				5.01189
				5.06357
				4.83786
				4.88852
				4.67688
				4.69573
				4.5601
				4.50747
				4.47586
				4.35378
				4.44902
				4.29744
				4.50943
				4.36417
				4.65122
				4.49475
				4.78729
				4.65193
				4.88917
				4.80637
				4.94422
				4.93463
				4.94244
				5.03396
				4.99578
				5.06779
				5.02345
				5.00665
				5.0259
				4.98275
				4.9742
				4.96972
				4.90884
				4.94537
				4.8363
				4.89858
				4.76118
				4.8367
				4.69356
				4.76963
				4.65392
				4.7302
				4.6611
				4.72626
				4.71535
				4.75428
				4.80263
				4.80419
				4.90173
				4.87895
				4.99436
				4.96165
				5.07394
				5.0366
				5.13366
				5.09142
				5.16523
				5.12246
				5.16523
				5.13209
				5.13366
				5.12246
				5.07394
				5.09142
				4.99436
				5.0366
				4.90173
				4.96165
				4.80263
				4.87895
				4.71535
				4.80419
				4.6611
				4.75428
				4.65392
				4.72626
				4.69356
				4.7302
				4.76117
				4.76963
				4.8363
				4.8367
				4.90884
				4.89858
				4.9742
				4.94537
				5.0259
				4.96972
				5.02345
				4.98275
				4.9789
				4.98759
				4.96339
				4.99188
				4.95846
				4.9723
				4.93808
				4.94581
				4.91165
				4.91303
				4.88275
				4.87955
				4.86148
				4.84818
				4.85349
				4.82613
				4.85875
				4.82123
				4.87777
				4.83743
				4.90739
				4.87137
				4.94296
				4.91458
				4.97726
				4.95761
				5.00543
				4.99605
				5.02396
				5.0271
				5.03323
				5.04706
				5.03323
				5.05389
				5.02396
				5.04706
				5.00543
				5.0271
				4.97726
				4.99605
				4.94296
				4.95761
				4.90739
				4.91458
				4.87777
				4.87137
				4.85875
				4.83743
				4.85348
				4.82123
				4.86148
				4.82613
				4.88275
				4.84818
				4.91165
				4.87955
				4.93808
				4.91303
				4.95846
				4.94581
				4.96339
				4.9723
				4.9789
				4.99188
				4.94523
				4.96213
				4.9631
				4.95769
				4.9545
				4.9563
				4.93993
				4.94857
				4.92523
				4.9362
				4.91083
				4.9232
				4.89921
				4.914
				4.89406
				4.90957
				4.89788
				4.90823
				4.90932
				4.91157
				4.92572
				4.92201
				4.9442
				4.93729
				4.96161
				4.95295
				4.9762
				4.96616
				4.98619
				4.97567
				4.99127
				4.98124
				4.99127
				4.98301
				4.98619
				4.98124
				4.9762
				4.97567
				4.96161
				4.96616
				4.9442
				4.95295
				4.92572
				4.93729
				4.90932
				4.92201
				4.89788
				4.91157
				4.89406
				4.90823
				4.89921
				4.90957
				4.91083
				4.914
				4.92523
				4.9232
				4.93993
				4.9362
				4.9545
				4.94857
				4.9631
				4.9563
				4.94523
				4.95769
				4.94634
				4.94562
				4.94669
				4.9521
				4.94421
				4.94515
				4.94093
				4.94435
				4.93828
				4.93817
				4.9355
				4.93229
				4.93334
				4.92772
				4.93314
				4.92558
				4.93549
				4.92663
				4.94024
				4.93111
				4.94649
				4.93841
				4.95314
				4.94708
				4.95932
				4.95554
				4.96433
				4.96284
				4.96773
				4.96842
				4.96943
				4.97193
				4.96943
				4.97314
				4.96773
				4.97193
				4.96433
				4.96842
				4.95932
				4.96284
				4.95314
				4.95554
				4.94649
				4.94708
				4.94024
				4.93841
				4.93549
				4.93111
				4.93314
				4.92663
				4.93334
				4.92558
				4.9355
				4.92772
				4.93828
				4.93229
				4.94093
				4.93817
				4.94421
				4.94435
				4.94669
				4.94515
				4.94634
				4.9521
				4.93615
				4.94052
				4.94248
				4.94311
				4.94524
				4.94481
				4.94324
				4.94587
				4.94192
				4.94502
				4.94081
				4.94398
				4.94021
				4.94326
				4.94062
				4.94319
				4.9423
				4.94396
				4.94508
				4.94559
				4.94848
				4.94787
				4.95198
				4.95043
				4.95514
				4.95288
				4.95765
				4.95494
				4.95937
				4.95648
				4.96024
				4.95742
				4.96024
				4.95773
				4.95937
				4.95742
				4.95765
				4.95648
				4.95514
				4.95494
				4.95198
				4.95288
				4.94848
				4.95043
				4.94508
				4.94787
				4.9423
				4.94559
				4.94062
				4.94396
				4.94021
				4.94319
				4.94081
				4.94326
				4.94192
				4.94398
				4.94324
				4.94502
				4.94524
				4.94587
				4.94248
				4.94481
				4.93615
				4.94311
				4.93981
				4.94539
				4.94237
				4.94389
				4.94361
				4.94248
				4.94385
				4.94214
				4.94425
				4.94268
				4.94493
				4.94333
				4.94591
				4.94408
				4.9472
				4.94514
				4.94875
				4.94661
				4.95047
				4.94844
				4.95216
				4.95047
				4.95368
				4.95249
				4.95492
				4.95427
				4.95583
				4.95569
				4.95642
				4.95671
				4.9567
				4.95731
				4.9567
				4.95751
				4.95642
				4.95731
				4.95583
				4.95671
				4.95492
				4.95569
				4.95368
				4.95427
				4.95216
				4.95249
				4.95047
				4.95047
				4.94875
				4.94844
				4.9472
				4.94661
				4.94591
				4.94514
				4.94493
				4.94408
				4.94425
				4.94333
				4.94385
				4.94268
				4.94361
				4.94214
				4.94237
				4.94248
				4.93981
				4.94389
			</DataArray>
			<DataArray type="Float64" Name="velocity" NumberOfComponents="3" Format="ascii">
				0.042304 -0.0291673 0.0 
				0.0393518 3.33384e-07 0.0 
				0.149949 -0.145674 0.0 
				0.130787 -0.0887483 0.0 
				0.355415 -0.35025 0.0 
				0.348289 -0.224081 0.0 
				0.623832 -0.52079 0.0 
				0.583652 -0.385744 0.0 
				0.945429 -0.599799 0.0 
				0.847201 -0.493626 0.0 
				1.28861 -0.55793 0.0 
				1.13106 -0.515265 0.0 
				1.59996 -0.385444 0.0 
				1.40983 -0.422055 0.0 
				1.7916 -0.101594 0.0 
				1.62579 -0.218304 0.0 
				1.80229 0.219687 0.0 
				1.72205 0.0579036 0.0 
				1.64469 0.502322 0.0 
				1.63894 0.334726 0.0 
				1.3721 0.705314 0.0 
				1.44189 0.544519 0.0 
				1.04808 0.789044 0.0 
				1.1969 0.665327 0.0 
				0.730761 0.757397 0.0 
				0.917243 0.692971 0.0 
				0.454858 0.616231 0.0 
				0.646923 0.616086 0.0 
				0.252518 0.398413 0.0 
				0.436903 0.45008 0.0 
				0.147487 0.137489 0.0 
				0.30818 0.236706 0.0 
				0.147487 -0.137489 0.0 
				0.264149 -2.16296e-07 0.0 
				0.252519 -0.398414 0.0 
				0.30818 -0.236707 0.0 
				0.454859 -0.616232 0.0 
				0.436905 -0.45008 0.0 
				0.730761 -0.757397 0.0 
				0.646923 -0.616087 0.0 
				1.04808 -0.789045 0.0 
				0.917243 -0.692971 0.0 
				1.3721 -0.705314 0.0 
				1.1969 -0.665327 0.0 
				1.64469 -0.502322 0.0 
				1.4419 -0.544519 0.0 
				1.80229 -0.219686 0.0 
				1.63895 -0.334726 0.0 
				1.7916 0.101594 0.0 
				1.72205 -0.0579034 0.0 
				1.59996 0.385444 0.0 
				1.62579 0.218304 0.0 
				1.28861 0.55793 0.0 
				1.40983 0.422056 0.0 
				0.94543 0.5998 0.0 
				1.13106 0.515265 0.0 
				0.623832 0.520791 0.0 
				0.847202 0.493626 0.0 
				0.355415 0.35025 0.0 
				0.583652 0.385745 0.0 
				0.149949 0.145674 0.0 
				0.348289 0.224081 0.0 
				0.042304 0.0291682 0.0 
				0.130786 0.0887486 0.0 
				0.259758 -0.0647867 0.0 
				0.138005 -4.25604e-08 0.0 
				0.522143 -0.161937 0.0 
				0.286133 -0.114775 0.0 
				0.728497 -0.235069 0.0 
				0.545739 -0.221149 0.0 
				0.885506 -0.286107 0.0 
				0.733841 -0.312377 0.0 
				1.03977 -0.297659 0.0 
				0.920914 -0.361522 0.0 
				1.19001 -0.262948 0.0 
				1.11176 -0.355643 0.0 
				1.32512 -0.171354 0.0 
				1.29197 -0.282705 0.0 
				1.40549 -0.0281146 0.0 
				1.43409 -0.143578 0.0 
				1.39924 0.135978 0.0 
				1.49729 0.0466965 0.0 
				1.3111 0.274805 0.0 
				1.44495 0.247456 0.0 
				1.17821 0.368515 0.0 
				1.29915 0.392976 0.0 
				1.02082 0.408921 0.0 
				1.11653 0.47646 0.0 
				0.861336 0.385983 0.0 
				0.918402 0.489437 0.0 
				0.724326 0.309786 0.0 
				0.735627 0.430063 0.0 
				0.626288 0.198085 0.0 
				0.588202 0.315932 0.0 
				0.57518 0.0679841 0.0 
				0.494098 0.166494 0.0 
				0.57518 -0.0679846 0.0 
				0.461973 -2.4823e-07 0.0 
				0.626289 -0.198085 0.0 
				0.494098 -0.166495 0.0 
				0.724326 -0.309786 0.0 
				0.588202 -0.315932 0.0 
				0.861336 -0.385983 0.0 
				0.735628 -0.430064 0.0 
				1.02082 -0.408921 0.0 
				0.918402 -0.489438 0.0 
				1.17821 -0.368515 0.0 
				1.11653 -0.47646 0.0 
				1.3111 -0.274805 0.0 
				1.29915 -0.392976 0.0 
				1.39924 -0.135978 0.0 
				1.44495 -0.247456 0.0 
				1.40549 0.0281146 0.0 
				1.49729 -0.0466963 0.0 
				1.32512 0.171354 0.0 
				1.4341 0.143578 0.0 
				1.19001 0.262949 0.0 
				1.29197 0.282706 0.0 
				1.03977 0.297659 0.0 
				1.11176 0.355643 0.0 
				0.885507 0.286108 0.0 
				0.920914 0.361522 0.0 
				0.728497 0.235069 0.0 
				0.733841 0.312378 0.0 
				0.522142 0.161938 0.0 
				0.545739 0.22115 0.0 
				0.259758 0.0647864 0.0 
				0.286132 0.114774 0.0 
				0.423255 -0.0523102 0.0 
				0.463685 2.59026e-07 0.0 
				0.671618 -0.116156 0.0 
				0.612641 -0.085088 0.0 
				0.835906 -0.15626 0.0 
				0.82408 -0.112143 0.0 
				0.93707 -0.180519 0.0 
				0.922355 -0.136292 0.0 
				1.03422 -0.179652 0.0 
				1.00112 -0.14333 0.0 
				1.12416 -0.150339 0.0 
				1.07492 -0.129717 0.0 
				1.19921 -0.0911603 0.0 
				1.14181 -0.0929534 0.0 
				1.24174 -0.00463021 0.0 
				1.18801 -0.0322506 0.0 
				1.23568 0.0937357 0.0 
				1.19968 0.0427419 0.0 
				1.18184 0.180176 0.0 
				1.17294 0.115923 0.0 
				1.09566 0.239721 0.0 
				1.11651 0.17411 0.0 
				0.99494 0.260632 0.0 
				1.04118 0.205113 0.0 
				0.8973 0.243379 0.0 
				0.96109 0.204647 0.0 
				0.813396 0.195983 0.0 
				0.888294 0.176814 0.0 
				0.751548 0.126726 0.0 
				0.830686 0.12879 0.0 
				0.719133 0.0437433 0.0 
				0.793734 0.0678075 0.0 
				0.719133 -0.0437436 0.0 
				0.780958 -1.34036e-07 0.0 
				0.751548 -0.126727 0.0 
				0.793734 -0.0678077 0.0 
				0.813396 -0.195983 0.0 
				0.830686 -0.12879 0.0 
				0.8973 -0.24338 0.0 
				0.888294 -0.176814 0.0 
				0.99494 -0.260633 0.0 
				0.96109 -0.204647 0.0 
				1.09566 -0.239721 0.0 
				1.04118 -0.205113 0.0 
				1.18184 -0.180176 0.0 
				1.11651 -0.17411 0.0 
				1.23568 -0.0937356 0.0 
				1.17294 -0.115923 0.0 
				1.24174 0.00463023 0.0 
				1.19968 -0.042742 0.0 
				1.19921 0.0911604 0.0 
				1.18801 0.0322507 0.0 
				1.12416 0.150339 0.0 
				1.14181 0.0929535 0.0 
				1.03422 0.179652 0.0 
				1.07492 0.129717 0.0 
				0.93707 0.18052 0.0 
				1.00112 0.14333 0.0 
				0.835906 0.15626 0.0 
				0.922355 0.136292 0.0 
				0.671618 0.116156 0.0 
				0.82408 0.112143 0.0 
				0.423255 0.0523106 0.0 
				0.612641 0.0850884 0.0 
				0.702273 -0.0299438 0.0 
				0.602236 3.86172e-09 0.0 
				0.866535 -0.053808 0.0 
				0.735692 -0.056886 0.0 
				0.947673 -0.0582164 0.0 
				0.892535 -0.0694596 0.0 
				0.990663 -0.0612654 0.0 
				0.95621 -0.0793019 0.0 
				1.02587 -0.0563197 0.0 
				1.00395 -0.0799187 0.0 
				1.05681 -0.0419407 0.0 
				1.04661 -0.0685876 0.0 
				1.07955 -0.0183463 0.0 
				1.08224 -0.0452844 0.0 
				1.08918 0.0122738 0.0 
				1.10565 -0.0100987 0.0 
				1.08339 0.0453078 0.0 
				1.11031 0.032619 0.0 
				1.06294 0.0741781 0.0 
				1.09377 0.0747225 0.0 
				1.03167 0.0921849 0.0 
				1.05913 0.107117 0.0 
				0.995967 0.0966458 0.0 
				1.0144 0.122932 0.0 
				0.961426 0.0884263 0.0 
				0.968251 0.120837 0.0 
				0.932446 0.0700818 0.0 
				0.926725 0.103959 0.0 
				0.911578 0.0448522 0.0 
				0.89353 0.0758733 0.0 
				0.900697 0.015434 0.0 
				0.872328 0.0399546 0.0 
				0.900697 -0.0154341 0.0 
				0.86504 -7.47231e-08 0.0 
				0.911578 -0.0448524 0.0 
				0.872328 -0.0399547 0.0 
				0.932446 -0.070082 0.0 
				0.89353 -0.0758734 0.0 
				0.961426 -0.0884265 0.0 
				0.926725 -0.103959 0.0 
				0.995967 -0.0966459 0.0 
				0.968251 -0.120837 0.0 
				1.03167 -0.092185 0.0 
				1.0144 -0.122932 0.0 
				1.06295 -0.0741781 0.0 
				1.05913 -0.107117 0.0 
				1.08339 -0.0453078 0.0 
				1.09377 -0.0747225 0.0 
				1.08918 -0.0122737 0.0 
				1.11031 -0.032619 0.0 
				1.07955 0.0183464 0.0 
				1.10565 0.0100987 0.0 
				1.05681 0.0419407 0.0 
				1.08224 0.0452845 0.0 
				1.02587 0.0563198 0.0 
				1.04661 0.0685877 0.0 
				0.990663 0.0612655 0.0 
				1.00395 0.0799188 0.0 
				0.947673 0.0582165 0.0 
				0.95621 0.079302 0.0 
				0.866535 0.0538082 0.0 
				0.892535 0.0694597 0.0 
				0.702272 0.0299439 0.0 
				0.735692 0.0568861 0.0 
				0.785966 -0.0189138 0.0 
				0.807281 3.16921e-08 0.0 
				0.915138 -0.0292522 0.0 
				0.876192 -0.0267084 0.0 
				0.973629 -0.0302785 0.0 
				0.965123 -0.020909 0.0 
				0.998209 -0.0309591 0.0 
				0.994014 -0.0219778 0.0 
				1.01799 -0.0272439 0.0 
				1.01044 -0.0209156 0.0 
				1.03421 -0.0187039 0.0 
				1.024 -0.0159162 0.0 
				1.04554 -0.00530025 0.0 
				1.03402 -0.00719025 0.0 
				1.04956 0.0117637 0.0 
				1.03883 0.00456736 0.0 
				1.04516 0.0297674 0.0 
				1.03791 0.017636 0.0 
				1.03292 0.0450877 0.0 
				1.03154 0.0299559 0.0 
				1.01489 0.0542657 0.0 
				1.02 0.039128 0.0 
				0.994761 0.0557513 0.0 
				1.00518 0.0428592 0.0 
				0.975765 0.0504837 0.0 
				0.990129 0.0410719 0.0 
				0.95992 0.0398978 0.0 
				0.976782 0.0347784 0.0 
				0.948895 0.0253758 0.0 
				0.966574 0.0250428 0.0 
				0.943347 0.00866933 0.0 
				0.960268 0.0130253 0.0 
				0.943347 -0.00866944 0.0 
				0.95815 -4.68983e-08 0.0 
				0.948895 -0.0253759 0.0 
				0.960268 -0.0130254 0.0 
				0.95992 -0.0398979 0.0 
				0.966574 -0.0250429 0.0 
				0.975765 -0.0504838 0.0 
				0.976782 -0.0347785 0.0 
				0.994761 -0.0557513 0.0 
				0.990129 -0.041072 0.0 
				1.01489 -0.0542657 0.0 
				1.00518 -0.0428593 0.0 
				1.03292 -0.0450877 0.0 
				1.02 -0.039128 0.0 
				1.04516 -0.0297674 0.0 
				1.03154 -0.0299559 0.0 
				1.04956 -0.0117636 0.0 
				1.03791 -0.0176359 0.0 
				1.04554 0.0053003 0.0 
				1.03883 -0.00456732 0.0 
				1.03421 0.0187039 0.0 
				1.03402 0.00719031 0.0 
				1.01799 0.0272439 0.0 
				1.024 0.0159163 0.0 
				0.998209 0.0309592 0.0 
				1.01044 0.0209157 0.0 
				0.973629 0.0302787 0.0 
				0.994014 0.0219779 0.0 
				0.915138 0.0292523 0.0 
				0.965123 0.0209091 0.0 
				0.785966 0.0189139 0.0 
				0.876191 0.0267085 0.0 
				0.90516 -0.00954093 0.0 
				0.864289 -9.58112e-08 0.0 
				0.972726 -0.0123343 0.0 
				0.922626 -0.016759 0.0 
				0.999215 -0.00942984 0.0 
				0.986426 -0.0140425 0.0 
				1.00742 -0.00899718 0.0 
				1.0022 -0.0130927 0.0 
				1.0129 -0.00694097 0.0 
				1.01079 -0.0118468 0.0 
				1.01667 -0.00341758 0.0 
				1.01782 -0.00826769 0.0 
				1.0186 0.00135723 0.0 
				1.02252 -0.00270162 0.0 
				1.01834 0.00694463 0.0 
				1.02434 0.00440908 0.0 
				1.01559 0.0124844 0.0 
				1.02283 0.0121618 0.0 
				1.01052 0.0167347 0.0 
				1.01797 0.019163 0.0 
				1.00409 0.0188364 0.0 
				1.01035 0.0238987 0.0 
				0.997386 0.0187504 0.0 
				1.00138 0.0255367 0.0 
				0.991233 0.0166981 0.0 
				0.99253 0.0242019 0.0 
				0.986195 0.0130371 0.0 
				0.984792 0.0203633 0.0 
				0.982648 0.00824872 0.0 
				0.978856 0.0146098 0.0 
				0.980821 0.00281651 0.0 
				0.97514 0.00760443 0.0 
				0.980821 -0.00281655 0.0 
				0.973872 -3.00524e-08 0.0 
				0.982648 -0.00824876 0.0 
				0.97514 -0.00760449 0.0 
				0.986195 -0.0130371 0.0 
				0.978856 -0.0146098 0.0 
				0.991233 -0.0166981 0.0 
				0.984792 -0.0203633 0.0 
				0.997386 -0.0187504 0.0 
				0.99253 -0.0242019 0.0 
				1.00409 -0.0188364 0.0 
				1.00138 -0.0255368 0.0 
				1.01052 -0.0167347 0.0 
				1.01035 -0.0238987 0.0 
				1.01559 -0.0124844 0.0 
				1.01797 -0.019163 0.0 
				1.01834 -0.0069446 0.0 
				1.02283 -0.0121618 0.0 
				1.0186 -0.00135721 0.0 
				1.02434 -0.00440905 0.0 
				1.01667 0.00341761 0.0 
				1.02252 0.00270166 0.0 
				1.0129 0.00694103 0.0 
				1.01782 0.00826773 0.0 
				1.00742 0.00899722 0.0 