<VTKFile type="UnstructuredGrid" version="0.1" byte_order="LittleEndian">
<UnstructuredGrid>
	<Piece NumberOfPoints="288" NumberOfCells="512">
		<CellData Scalars="density" Vectors="velocity">
			<DataArray type="Float64" Name="density" Format="ascii">
				1.04958
				1.0441
				1.04045
				1.04109
				1.01314
				1.02782
				0.969203
				0.998835
				0.913921
				0.956402
				0.854943
				0.90665
				0.801816
				0.857865
				0.768177
				0.821117
				0.770094
				0.810082
				0.806178
				0.829981
				0.860938
				0.870869
				0.921116
				0.920324
				0.977744
				0.969598
				1.02461
				1.01277
				1.0566
				1.04567
				1.06841
				1.06605
				1.06841
				1.07178
				1.0566
				1.06605
				1.02461
				1.04567
				0.977745
				1.01277
				0.921116
				0.969598
				0.86094
				0.920325
				0.80618
				0.87087
				0.770096
				0.829982
				0.768179
				0.810084
				0.801818
				0.821119
				0.854945
				0.857866
				0.913922
				0.906652
				0.969204
				0.956403
				1.01314
				0.998836
				1.04045
				1.02782
				1.04958
				1.04109
				1.03565
				1.04688
				1.03081
				1.044
				1.01865
				1.03254
				0.999036
				1.01236
				0.974505
				0.985097
				0.948034
				0.952704
				0.924284
				0.919224
				0.909887
				0.891755
				0.910748
				0.880025
				0.926689
				0.889426
				0.951752
				0.915217
				0.979517
				0.948601
				1.00547
				0.98258
				1.02686
				1.01257
				1.04215
				1.03562
				1.05001
				1.04987
				1.05001
				1.05443
				1.04215
				1.04987
				1.02686
				1.03562
				1.00547
				1.01257
				0.979517
				0.98258
				0.951753
				0.948601
				0.92669
				0.915218
				0.910749
				0.889427
				0.909888
				0.880026
				0.924285
				0.891756
				0.948035
				0.919225
				0.974506
				0.952704
				0.999036
				0.985098
				1.01865
				1.01237
				1.03081
				1.03254
				1.03565
				1.044
				1.02651
				1.021
				1.02485
				1.0192
				1.01615
				1.01568
				1.00399
				1.00782
				0.988919
				0.99737
				0.972662
				0.985413
				0.958155
				0.973768
				0.949239
				0.965082
				0.949004
				0.96201
				0.957632
				0.965731
				0.972243
				0.975082
				0.989062
				0.987441
				1.00502
				1.00017
				1.01816
				1.01139
				1.02746
				1.01995
				1.03235
				1.02528
				1.03235
				1.02702
				1.02746
				1.02528
				1.01816
				1.01995
				1.00502
				1.01139
				0.989062
				1.00017
				0.972244
				0.987441
				0.957633
				0.975082
				0.949005
				0.965732
				0.94924
				0.96201
				0.958156
				0.965082
				0.972662
				0.973768
				0.988919
				0.985413
				1.00399
				0.99737
				1.01615
				1.00782
				1.02485
				1.01568
				1.02651
				1.0192
				1.0076
				1.00968
				1.00793
				1.012
				1.00579
				1.00994
				1.00206
				1.00555
				0.997406
				0.999624
				0.992537
				0.99289
				0.98842
				0.986446
				0.986098
				0.981723
				0.98629
				0.980065
				0.988956
				0.982027
				0.993366
				0.987026
				0.998469
				0.993717
				1.00333
				1.00068
				1.00731
				1.00682
				1.01008
				1.0115
				1.01149
				1.01436
				1.01149
				1.01533
				1.01008
				1.01436
				1.00731
				1.0115
				1.00333
				1.00682
				0.998469
				1.00068
				0.993366
				0.993718
				0.988956
				0.987026
				0.98629
				0.982028
				0.986099
				0.980066
				0.988421
				0.981723
				0.992537
				0.986446
				0.997406
				0.99289
				1.00206
				0.999624
				1.00579
				1.00555
				1.00793
				1.00994
				1.0076
				1.012
				1.00294
				1.00191
				1.00464
				1.00243
				1.00313
				1.00269
				1.00114
				1.0016
				0.998732
				1.00003
				0.996258
				0.998276
				0.994198
				0.996638
				0.993069
				0.995482
				0.993208
				0.995121
				0.994585
				0.995675
				0.996833
				0.996996
				0.999432
				0.998756
				1.00191
				1.00059
				1.00393
				1.0022
				1.00533
				1.00343
				1.00604
				1.00419
				1.00604
				1.00444
				1.00533
				1.00419
				1.00393
				1.00343
				1.00191
				1.0022
				0.999432
				1.00059
				0.996833
				0.998756
				0.994585
				0.996996
				0.993208
				0.995675
				0.99307
				0.995121
				0.994199
				0.995482
				0.996258
				0.996638
				0.998732
				0.998276
				1.00114
				1.00003
				1.00313
				1.0016
				1.00464
				1.00269
				1.00294
				1.00243
				0.99996
				0.999002
				1.00092
				1.00164
				1.00071
				1.00129
				1.00023
				1.00068
				0.999675
				0.999919
				0.999113
				0.999089
				0.998655
				0.998325
				0.998418
				0.9978
				0.998478
				0.997661
				0.998828
				0.997963
				0.999383
				0.998633
				1.00002
				0.999509
				1.00062
				1.00041
				1.00111
				1.0012
				1.00145
				1.0018
				1.00162
				1.00216
				1.00162
				1.00228
				1.00145
				1.00216
				1.00111
				1.0018
				1.00062
				1.0012
				1.00002
				1.00041
				0.999383
				0.999509
				0.998829
				0.998633
				0.998478
				0.997963
				0.998418
				0.997661
				0.998655
				0.9978
				0.999113
				0.998325
				0.999675
				0.999089
				1.00023
				0.999919
				1.00071
				1.00068
				1.00092
				1.00129
				0.99996
				1.00164
				0.999503
				0.999518
				1.00058
				0.999969
				1.00029
				1.00024
				1.00009
				1.00013
				0.999839
				0.999983
				0.999586
				0.999819
				0.999384
				0.999666
				0.999288
				0.999563
				0.999331
				0.999542
				0.999503
				0.999613
				0.999766
				0.999764
				1.00006
				0.99996
				1.00035
				1.00016
				1.00058
				1.00035
				1.00074
				1.00048
				1.00083
				1.00057
				1.00083
				1.0006
				1.00074
				1.00057
				1.00058
				1.00048
				1.00035
				1.00035
				1.00006
				1.00016
				0.999766
				0.99996
				0.999503
				0.999764
				0.999331
				0.999613
				0.999288
				0.999542
				0.999384
				0.999563
				0.999586
				0.999666
				0.999839
				0.999819
				1.00009
				0.999983
				1.00029
				1.00013
				1.00058
				1.00024
				0.999503
				0.999969
				0.999504
				0.999068
				1.00005
				1.00026
				1.00002
				1.00001
				0.999975
				0.999978
				0.999922
				0.99992
				0.999872
				0.999854
				0.999838
				0.999794
				0.999834
				0.99976
				0.999868
				0.999767
				0.999941
				0.999827
				1.00004
				0.999933
				1.00014
				1.00006
				1.00022
				1.00019
				1.00029
				1.00029
				1.00034
				1.00037
				1.00036
				1.00042
				1.00036
				1.00043
				1.00034
				1.00042
				1.00029
				1.00037
				1.00022
				1.00029
				1.00014
				1.00019
				1.00004
				1.00006
				0.999941
				0.999933
				0.999868
				0.999827
				0.999834
				0.999767
				0.999838
				0.99976
				0.999872
				0.999794
				0.999922
				0.999854
				0.999975
				0.99992
				1.00002
				0.999978
				1.00005
				1.00002
				0.999504
				1.00026
			</DataArray>
			<DataArray type="Float64" Name="mach-number" Format="ascii">
				0.0557985
				0.0490861
				0.160806
				0.125536
				0.286204
				0.231682
				0.417055
				0.347756
				0.545486
				0.463832
				0.665183
				0.573448
				0.766483
				0.668919
				0.829804
				0.737484
				0.828338
				0.760491
				0.765461
				0.73009
				0.667598
				0.660451
				0.553475
				0.568774
				0.43225
				0.465802
				0.308178
				0.357697
				0.184692
				0.249202
				0.0705477
				0.148454
				0.0705467
				0.0756809
				0.184691
				0.148453
				0.308177
				0.249202
				0.432248
				0.357696
				0.553473
				0.4658
				0.667595
				0.568772
				0.765459
				0.66045
				0.828335
				0.730087
				0.829801
				0.760489
				0.76648
				0.737481
				0.66518
				0.668917
				0.545484
				0.573446
				0.417053
				0.46383
				0.286203
				0.347754
				0.160805
				0.23168
				0.0557978
				0.125535
				0.190907
				0.119351
				0.256442
				0.194279
				0.313436
				0.266379
				0.373075
				0.339267
				0.436033
				0.414658
				0.497665
				0.490328
				0.549642
				0.56025
				0.580688
				0.613827
				0.580801
				0.63622
				0.550192
				0.61881
				0.498496
				0.568678
				0.435986
				0.499287
				0.370419
				0.421111
				0.308219
				0.341398
				0.25624
				0.267034
				0.220476
				0.207235
				0.220476
				0.158333
				0.25624
				0.207234
				0.308218
				0.267034
				0.370418
				0.341397
				0.435985
				0.42111
				0.498495
				0.499286
				0.550191
				0.568676
				0.580799
				0.618808
				0.580686
				0.636218
				0.54964
				0.613825
				0.497663
				0.560248
				0.436032
				0.490326
				0.373074
				0.414657
				0.313436
				0.339266
				0.256442
				0.266378
				0.190906
				0.194278
				0.251683
				0.264655
				0.298998
				0.302922
				0.329568
				0.327456
				0.365541
				0.352408
				0.406059
				0.382818
				0.44633
				0.415294
				0.479974
				0.444919
				0.499836
				0.466119
				0.500425
				0.473786
				0.481413
				0.465707
				0.447801
				0.444103
				0.406568
				0.414046
				0.364142
				0.381089
				0.325854
				0.350025
				0.296184
				0.324691
				0.279574
				0.308262
				0.279574
				0.301798
				0.296184
				0.308262
				0.325853
				0.324691
				0.364142
				0.350025
				0.406567
				0.381089
				0.4478
				0.414045
				0.481412
				0.444102
				0.500424
				0.465706
				0.499835
				0.473785
				0.479973
				0.466118
				0.446329
				0.444918
				0.406058
				0.415293
				0.365541
				0.382817
				0.329568
				0.352408
				0.298998
				0.327455
				0.251682
				0.302922
				0.334365
				0.301224
				0.352673
				0.340156
				0.361171
				0.34865
				0.373205
				0.362471
				0.386728
				0.379813
				0.399953
				0.398236
				0.410722
				0.414957
				0.416694
				0.426809
				0.416274
				0.430939
				0.409529
				0.426174
				0.398167
				0.413723
				0.384697
				0.396536
				0.371519
				0.377999
				0.360452
				0.361002
				0.352644
				0.347628
				0.348576
				0.339179
				0.348576
				0.336019
				0.352644
				0.339179
				0.360452
				0.347628
				0.371518
				0.361001
				0.384696
				0.377998
				0.398167
				0.396536
				0.409528
				0.413722
				0.416273
				0.426173
				0.416693
				0.430938
				0.410721
				0.426808
				0.399953
				0.414957
				0.386728
				0.398235
				0.373205
				0.379813
				0.361171
				0.36247
				0.352673
				0.34865
				0.334365
				0.340156
				0.35307
				0.354161
				0.365933
				0.366434
				0.370321
				0.371256
				0.376683
				0.375612
				0.383534
				0.380304
				0.390233
				0.385122
				0.395689
				0.389494
				0.398661
				0.392536
				0.398333
				0.393458
				0.394754
				0.391968
				0.388827
				0.388439
				0.381878
				0.38372
				0.375172
				0.378773
				0.369622
				0.374382
				0.365746
				0.37104
				0.363763
				0.368984
				0.363763
				0.368291
				0.365746
				0.368984
				0.369621
				0.37104
				0.375171
				0.374382
				0.381878
				0.378773
				0.388826
				0.383719
				0.394753
				0.388438
				0.398332
				0.391968
				0.398661
				0.393458
				0.395688
				0.392535
				0.390233
				0.389494
				0.383534
				0.385122
				0.376682
				0.380303
				0.370321
				0.375612
				0.365933
				0.371256
				0.35307
				0.366434
				0.37044
				0.360252
				0.376893
				0.374962
				0.378482
				0.376197
				0.379874
				0.378518
				0.381351
				0.380644
				0.382837
				0.382868
				0.384043
				0.384902
				0.384658
				0.386302
				0.384486
				0.386677
				0.383542
				0.385883
				0.382052
				0.384101
				0.380345
				0.381758
				0.378725
				0.379328
				0.377406
				0.377193
				0.376502
				0.375586
				0.376042
				0.374607
				0.376042
				0.374283
				0.376502
				0.374607
				0.377406
				0.375586
				0.378725
				0.377193
				0.380345
				0.379328
				0.382052
				0.381757
				0.383542
				0.384101
				0.384486
				0.385882
				0.384658
				0.386677
				0.384042
				0.386302
				0.382837
				0.384902
				0.381351
				0.382867
				0.379874
				0.380644
				0.378482
				0.378518
				0.376893
				0.376197
				0.37044
				0.374962
				0.37408
				0.372748
				0.379079
				0.378331
				0.379564
				0.379802
				0.380084
				0.380055
				0.380738
				0.380427
				0.381415
				0.380865
				0.381961
				0.38127
				0.382226
				0.381534
				0.382126
				0.381574
				0.381675
				0.381363
				0.38098
				0.380946
				0.380186
				0.380415
				0.379435
				0.379872
				0.378824
				0.379399
				0.378413
				0.379048
				0.378204
				0.378852
				0.378204
				0.378803
				0.378413
				0.378852
				0.378823
				0.379048
				0.379435
				0.379399
				0.380186
				0.379872
				0.38098
				0.380415
				0.381675
				0.380946
				0.382125
				0.381363
				0.382226
				0.381574
				0.38196
				0.381534
				0.381415
				0.381269
				0.380738
				0.380865
				0.380084
				0.380427
				0.379564
				0.380055
				0.379079
				0.379802
				0.37408
				0.378331
				0.37819
				0.37337
				0.380415
				0.380355
				0.380416
				0.380412
				0.380464
				0.380481
				0.380536
				0.380602
				0.380613
				0.380748
				0.380669
				0.380883
				0.380672
				0.380956
				0.380593
				0.380926
				0.380434
				0.380771
				0.380222
				0.380512
				0.379995
				0.3802
				0.379787
				0.379894
				0.37962
				0.379636
				0.379505
				0.379451
				0.379447
				0.379361
				0.379447
				0.379347
				0.379505
				0.379361
				0.37962
				0.379451
				0.379787
				0.379636
				0.379995
				0.379894
				0.380222
				0.3802
				0.380434
				0.380511
				0.380593
				0.380771
				0.380671
				0.380926
				0.380669
				0.380956
				0.380613
				0.380882
				0.380535
				0.380748
				0.380464
				0.380602
				0.380416
				0.380481
				0.380415
				0.380412
				0.37819
				0.380355
			</DataArray>
			<DataArray type="Float64" Name="pressure" Format="ascii">
				5.33155
				5.29322
				5.25994
				5.2664
				5.06524
				5.1648
				4.75971
				4.95707
				4.38331
				4.66383
				3.99032
				4.32975
				3.64373
				4.01025
				3.4274
				3.77392
				3.43639
				3.70177
				3.66091
				3.82469
				4.00966
				4.08535
				4.40334
				4.40922
				4.78418
				4.73987
				5.10786
				5.03556
				5.33554
				5.26462
				5.43024
				5.40925
				5.43024
				5.45958
				5.33554
				5.40925
				5.10786
				5.26462
				4.78419
				5.03556
				4.40335
				4.73987
				4.00967
				4.40922
				3.66092
				4.08536
				3.4364
				3.8247
				3.42741
				3.70178
				3.64374
				3.77393
				3.99033
				4.01026
				4.38332
				4.32976
				4.75972
				4.66384
				5.06524
				4.95708
				5.25994
				5.1648
				5.33155
				5.2664
				5.22801
				5.30615
				5.18173
				5.28112
				5.08901
				5.19009
				4.9492
				5.04576
				4.77798
				4.85564
				4.59614
				4.63369
				4.43552
				4.40762
				4.33939
				4.22408
				4.34528
				4.14513
				4.45162
				4.20481
				4.62011
				4.37384
				4.80876
				4.59654
				4.98686
				4.82693
				5.13458
				5.03321
				5.24038
				5.19351
				5.29627
				5.29363
				5.29627
				5.33758
				5.24038
				5.29363
				5.13458
				5.19351
				4.98687
				5.03322
				4.80876
				4.82693
				4.62011
				4.59654
				4.45163
				4.37385
				4.34529
				4.20482
				4.33939
				4.14514
				4.43553
				4.22409
				4.59615
				4.40763
				4.77798
				4.63369
				4.9492
				4.85564
				5.08901
				5.04576
				5.18173
				5.19009
				5.22801
				5.28112
				5.16085
				5.12249
				5.13045
				5.09911
				5.06593
				5.06386
				4.97918
				5.00515
				4.87375
				4.93059
				4.76149
				4.84706
				4.66224
				4.76673
				4.60148
				4.70728
				4.59948
				4.68638
				4.6574
				4.71187
				4.75644
				4.77587
				4.87148
				4.8607
				4.98152
				4.94844
				5.07276
				5.02596
				5.13771
				5.0853
				5.17249
				5.12201
				5.17249
				5.13415
				5.13771
				5.12201
				5.07276
				5.0853
				4.98152
				5.02597
				4.87148
				4.94844
				4.75645
				4.8607
				4.6574
				4.77587
				4.59948
				4.71187
				4.60148
				4.68638
				4.66224
				4.70728
				4.76149
				4.76673
				4.87375
				4.84706
				4.97918
				4.93059
				5.06593
				5.00515
				5.13045
				5.06386
				5.16085
				5.09911
				5.01844
				5.04518
				5.00734
				5.03979
				4.9882
				5.01895
				4.9611
				4.98655
				4.92855
				4.94466
				4.89485
				4.89784
				4.86647
				4.85336
				4.85049
				4.82087
				4.85184
				4.80946
				4.87026
				4.82285
				4.90073
				4.85713
				4.93603
				4.9032
				4.96967
				4.95128
				4.99728
				4.99388
				5.01647
				5.02641
				5.0262
				5.04639
				5.0262
				5.05332
				5.01647
				5.04639
				4.99728
				5.02641
				4.96967
				4.99388
				4.93603
				4.95128
				4.90073
				4.9032
				4.87027
				4.85714
				4.85184
				4.82285
				4.8505
				4.80946
				4.86647
				4.82088
				4.89486
				4.85336
				4.92856
				4.89784
				4.9611
				4.94467
				4.98821
				4.98655
				5.00734
				5.01895
				5.01844
				5.03979
				4.98338
				4.97637
				4.97948
				4.96971
				4.96851
				4.96555
				4.95443
				4.95749
				4.93773
				4.94667
				4.92065
				4.93456
				4.90645
				4.92326
				4.89867
				4.91528
				4.89963
				4.9128
				4.90913
				4.91663
				4.92466
				4.92578
				4.94264
				4.93796
				4.95977
				4.95065
				4.97381
				4.96185
				4.98353
				4.97035
				4.98848
				4.97558
				4.98848
				4.97732
				4.98353
				4.97558
				4.97381
				4.97035
				4.95978
				4.96185
				4.94264
				4.95065
				4.92467
				4.93796
				4.90913
				4.92578
				4.89963
				4.91663
				4.89867
				4.9128
				4.90645
				4.91528
				4.92065
				4.92326
				4.93773
				4.93456
				4.95444
				4.94667
				4.96851
				4.95749
				4.97948
				4.96555
				4.98338
				4.96971
				4.9544
				4.95902
				4.95319
				4.95841
				4.95136
				4.95534
				4.94814
				4.95117
				4.94431
				4.94596
				4.94042
				4.94025
				4.93726
				4.93497
				4.93562
				4.93135
				4.93604
				4.93039
				4.93846
				4.93248
				4.9423
				4.93711
				4.9467
				4.94317
				4.95086
				4.94943
				4.95425
				4.95491
				4.9566
				4.95904
				4.95779
				4.96157
				4.95779
				4.96241
				4.9566
				4.96157
				4.95425
				4.95904
				4.95086
				4.95491
				4.9467
				4.94943
				4.94231
				4.94318
				4.93846
				4.93711
				4.93604
				4.93248
				4.93562
				4.93039
				4.93726
				4.93135
				4.94042
				4.93498
				4.94431
				4.94025
				4.94814
				4.94596
				4.95136
				4.95117
				4.95319
				4.95534
				4.9544
				4.95841
				4.94952
				4.94975
				4.94974
				4.94791
				4.94857
				4.94812
				4.94717
				4.94746
				4.94546
				4.94646
				4.94371
				4.94532
				4.94231
				4.94426
				4.94165
				4.94355
				4.94194
				4.94341
				4.94313
				4.9439
				4.94495
				4.94494
				4.94702
				4.9463
				4.94899
				4.94772
				4.9506
				4.94897
				4.95173
				4.94992
				4.95232
				4.95051
				4.95232
				4.95071
				4.95173
				4.95051
				4.9506
				4.94992
				4.94899
				4.94897
				4.94702
				4.94772
				4.94495
				4.9463
				4.94313
				4.94494
				4.94194
				4.9439
				4.94165
				4.94341
				4.94231
				4.94355
				4.94371
				4.94426
				4.94546
				4.94532
				4.94717
				4.94646
				4.94857
				4.94746
				4.94974
				4.94812
				4.94952
				4.94791
				4.94622
				4.94786
				4.94687
				4.94735
				4.94673
				4.94673
				4.94641
				4.94642
				4.94603
				4.94602
				4.94569
				4.94556
				4.94546
				4.94515
				4.94543
				4.94492
				4.94566
				4.94496
				4.94617
				4.94538
				4.94683
				4.94612
				4.94751
				4.94701
				4.94813
				4.94788
				4.9486
				4.94862
				4.94892
				4.94915
				4.94909
				4.94946
				4.94909
				4.94956
				4.94892
				4.94946
				4.9486
				4.94915
				4.94813
				4.94862
				4.94752
				4.94788
				4.94683
				4.94701
				4.94617
				4.94612
				4.94567
				4.94538
				4.94543
				4.94496
				4.94546
				4.94492
				4.94569
				4.94515
				4.94603
				4.94556
				4.94641
				4.94602
				4.94673
				4.94642
				4.94687
				4.94673
				4.94622
				4.94735
			</DataArray>
			<DataArray type="Float64" Name="velocity" NumberOfComponents="3" Format="ascii">
				0.123173 -0.0834873 0.0 
				0.130771 -1.04464e-06 0.0 
				0.25943 -0.340168 0.0 
				0.271968 -0.194012 0.0 
				0.485252 -0.581265 0.0 
				0.449004 -0.419533 0.0 
				0.799705 -0.745875 0.0 
				0.690771 -0.602565 0.0 
				1.16994 -0.793223 0.0 
				0.985999 -0.704677 0.0 
				1.54805 -0.703389 0.0 
				1.30786 -0.698621 0.0 
				1.87379 -0.47603 0.0 
				1.61306 -0.57135 0.0 
				2.06948 -0.13561 0.0 
				1.84192 -0.327047 0.0 
				2.05544 0.248355 0.0 
				1.92353 -0.00117884 0.0 
				1.84183 0.576823 0.0 
				1.82572 0.324919 0.0 
				1.51098 0.78925 0.0 
				1.5923 0.573871 0.0 
				1.13817 0.868766 0.0 
				1.28982 0.711481 0.0 
				0.77913 0.820286 0.0 
				0.973526 0.732921 0.0 
				0.475966 0.66053 0.0 
				0.685957 0.648146 0.0 
				0.260782 0.416106 0.0 
				0.460041 0.475491 0.0 
				0.137485 0.128498 0.0 
				0.315027 0.239404 0.0 
				0.137485 -0.128494 0.0 
				0.202105 1.58597e-06 0.0 
				0.260782 -0.416103 0.0 
				0.315027 -0.239401 0.0 
				0.475966 -0.660527 0.0 
				0.460042 -0.475488 0.0 
				0.779128 -0.820283 0.0 
				0.685955 -0.648144 0.0 
				1.13816 -0.868763 0.0 
				0.973523 -0.732918 0.0 
				1.51098 -0.789248 0.0 
				1.28982 -0.711478 0.0 
				1.84182 -0.576821 0.0 
				1.5923 -0.573869 0.0 
				2.05543 -0.248354 0.0 
				1.82571 -0.324918 0.0 
				2.06947 0.135609 0.0 
				1.92352 0.0011787 0.0 
				1.87379 0.476028 0.0 
				1.84191 0.327045 0.0 
				1.54805 0.703386 0.0 
				1.61305 0.571348 0.0 
				1.16994 0.79322 0.0 
				1.30785 0.698617 0.0 
				0.799701 0.745872 0.0 
				0.985995 0.704674 0.0 
				0.48525 0.581261 0.0 
				0.690769 0.602561 0.0 
				0.259429 0.340164 0.0 
				0.449002 0.419529 0.0 
				0.123172 0.0834851 0.0 
				0.271966 0.194009 0.0 
				0.499943 -0.0873238 0.0 
				0.317928 -1.19192e-06 0.0 
				0.646143 -0.212859 0.0 
				0.487226 -0.172961 0.0 
				0.765978 -0.316858 0.0 
				0.631432 -0.317228 0.0 
				0.903433 -0.38618 0.0 
				0.788543 -0.425862 0.0 
				1.06695 -0.408249 0.0 
				0.974865 -0.485963 0.0 
				1.24284 -0.369281 0.0 
				1.18619 -0.479618 0.0 
				1.40051 -0.261258 0.0 
				1.39766 -0.391897 0.0 
				1.49761 -0.0925712 0.0 
				1.56534 -0.219971 0.0 
				1.49766 0.101199 0.0 
				1.63373 0.0117171 0.0 
				1.40103 0.270081 0.0 
				1.5731 0.244483 0.0 
				1.24259 0.380482 0.0 
				1.40968 0.420126 0.0 
				1.06212 0.422331 0.0 
				1.1949 0.513178 0.0 
				0.890128 0.40051 0.0 
				0.972503 0.523314 0.0 
				0.747042 0.327044 0.0 
				0.773366 0.461514 0.0 
				0.644266 0.217137 0.0 
				0.618225 0.344145 0.0 
				0.579792 0.0842981 0.0 
				0.516659 0.190322 0.0 
				0.579792 -0.0842961 0.0 
				0.421502 1.08259e-06 0.0 
				0.644266 -0.217135 0.0 
				0.516659 -0.19032 0.0 
				0.747041 -0.327042 0.0 
				0.618225 -0.344142 0.0 
				0.890127 -0.400508 0.0 
				0.773365 -0.461512 0.0 
				1.06212 -0.422329 0.0 
				0.972502 -0.523312 0.0 
				1.24259 -0.38048 0.0 
				1.19489 -0.513176 0.0 
				1.40103 -0.27008 0.0 
				1.40968 -0.420124 0.0 
				1.49765 -0.101198 0.0 
				1.5731 -0.244482 0.0 
				1.49761 0.0925707 0.0 
				1.63373 -0.0117168 0.0 
				1.4005 0.261256 0.0 
				1.56533 0.21997 0.0 
				1.24283 0.369279 0.0 
				1.39766 0.391896 0.0 
				1.06695 0.408247 0.0 
				1.18619 0.479615 0.0 
				0.903432 0.386178 0.0 
				0.974863 0.485961 0.0 
				0.765978 0.316856 0.0 
				0.788542 0.42586 0.0 
				0.646142 0.212856 0.0 
				0.631431 0.317225 0.0 
				0.49994 0.0873208 0.0 
				0.487224 0.172957 0.0 
				0.666333 -0.0430712 0.0 
				0.701408 -1.02447e-06 0.0 
				0.780629 -0.131048 0.0 
				0.7987 -0.0693138 0.0 
				0.848959 -0.193285 0.0 
				0.855792 -0.126729 0.0 
				0.933906 -0.235728 0.0 
				0.9137 -0.169231 0.0 
				1.03725 -0.24851 0.0 
				0.988761 -0.191383 0.0 
				1.14701 -0.222814 0.0 
				1.07375 -0.186383 0.0 
				1.24316 -0.154656 0.0 
				1.15513 -0.14928 0.0 
				1.30114 -0.0505175 0.0 
				1.21535 -0.0810273 0.0 
				1.30173 0.0686114 0.0 
				1.23728 0.0072419 0.0 
				1.24412 0.173674 0.0 
				1.21343 0.0951634 0.0 
				1.14657 0.242491 0.0 
				1.15152 0.162512 0.0 
				1.03364 0.267208 0.0 
				1.06875 0.198044 0.0 
				0.925792 0.251118 0.0 
				0.982731 0.200462 0.0 
				0.83638 0.202738 0.0 
				0.906567 0.174661 0.0 
				0.772536 0.13158 0.0 
				0.848243 0.12791 0.0 
				0.739008 0.0462111 0.0 
				0.812456 0.0672802 0.0 
				0.739008 -0.0462093 0.0 
				0.798406 7.32617e-07 0.0 
				0.772535 -0.131579 0.0 
				0.812455 -0.0672785 0.0 
				0.836379 -0.202736 0.0 
				0.848243 -0.127909 0.0 
				0.92579 -0.251117 0.0 
				0.906566 -0.17466 0.0 
				1.03364 -0.267206 0.0 
				0.98273 -0.20046 0.0 
				1.14657 -0.242489 0.0 
				1.06875 -0.198043 0.0 
				1.24412 -0.173673 0.0 
				1.15152 -0.162511 0.0 
				1.30173 -0.068611 0.0 
				1.21343 -0.0951629 0.0 
				1.30114 0.0505171 0.0 
				1.23728 -0.00724193 0.0 
				1.24315 0.154655 0.0 
				1.21535 0.0810267 0.0 
				1.14701 0.222813 0.0 
				1.15513 0.149279 0.0 
				1.03725 0.248508 0.0 
				1.07375 0.186381 0.0 
				0.933905 0.235726 0.0 
				0.988759 0.191381 0.0 
				0.848959 0.193283 0.0 
				0.913699 0.169229 0.0 
				0.780628 0.131046 0.0 
				0.855792 0.126727 0.0 
				0.66633 0.0430692 0.0 
				0.798699 0.0693121 0.0 
				0.882696 -0.0202866 0.0 
				0.796709 -6.38245e-07 0.0 
				0.92921 -0.0403681 0.0 
				0.897328 -0.0389108 0.0 
				0.949721 -0.0611579 0.0 
				0.916962 -0.0699869 0.0 
				0.979738 -0.0742634 0.0 
				0.950476 -0.0935757 0.0 
				1.01422 -0.0773663 0.0 
				0.993926 -0.105443 0.0 
				1.04871 -0.0680771 0.0 
				1.04157 -0.10187 0.0 
				1.07735 -0.0457109 0.0 
				1.08608 -0.0805497 0.0 
				1.09341 -0.0130454 0.0 
				1.11829 -0.0424789 0.0 
				1.09218 0.0233062 0.0 
				1.12952 0.00604064 0.0 
				1.0739 0.0550784 0.0 
				1.11617 0.0542476 0.0 
				1.04366 0.0758817 0.0 
				1.08207 0.0913505 0.0 
				1.00863 0.083136 0.0 
				1.03629 0.110937 0.0 
				0.975247 0.0776574 0.0 
				0.988544 0.112009 0.0 
				0.947907 0.0621275 0.0 
				0.946312 0.0972621 0.0 
				0.929016 0.0397673 0.0 
				0.914162 0.0708948 0.0 
				0.919288 0.0137734 0.0 
				0.894357 0.0372516 0.0 
				0.919287 -0.0137724 0.0 
				0.886979 5.90378e-07 0.0 
				0.929016 -0.0397663 0.0 
				0.894356 -0.0372504 0.0 
				0.947907 -0.0621265 0.0 
				0.914161 -0.0708936 0.0 
				0.975246 -0.0776564 0.0 
				0.946312 -0.097261 0.0 
				1.00863 -0.0831352 0.0 
				0.988543 -0.112007 0.0 
				1.04366 -0.0758811 0.0 
				1.03629 -0.110936 0.0 
				1.0739 -0.0550779 0.0 
				1.08207 -0.0913498 0.0 
				1.09218 -0.023306 0.0 
				1.11616 -0.0542472 0.0 
				1.09341 0.0130452 0.0 
				1.12952 -0.00604068 0.0 
				1.07735 0.0457103 0.0 
				1.11828 0.0424785 0.0 
				1.04871 0.0680763 0.0 
				1.08608 0.0805489 0.0 
				1.01422 0.0773653 0.0 
				1.04157 0.101868 0.0 
				0.979737 0.0742623 0.0 
				0.993925 0.105442 0.0 
				0.94972 0.0611567 0.0 
				0.950476 0.0935744 0.0 
				0.92921 0.0403669 0.0 
				0.916962 0.0699856 0.0 
				0.882696 0.0202854 0.0 
				0.897328 0.0389094 0.0 
				0.931194 -0.00608956 0.0 
				0.933912 -4.02978e-07 0.0 
				0.963736 -0.0201041 0.0 
				0.965333 -0.00945096 0.0 
				0.974687 -0.0304992 0.0 
				0.977384 -0.0178783 0.0 
				0.990795 -0.0371289 0.0 
				0.988463 -0.0239476 0.0 
				1.0083 -0.0386509 0.0 
				1.00043 -0.0269448 0.0 
				1.0256 -0.0338447 0.0 
				1.01279 -0.0258388 0.0 
				1.03983 -0.0224028 0.0 
				1.02409 -0.0199792 0.0 
				1.04764 -0.00581369 0.0 
				1.032 -0.00979352 0.0 
				1.04674 0.0125736 0.0 
				1.0344 0.00292841 0.0 
				1.0373 0.0286374 0.0 
				1.03048 0.0154022 0.0 
				1.02183 0.0391499 0.0 
				1.02129 0.0249249 0.0 
				1.00392 0.0427474 0.0 
				1.0091 0.0298545 0.0 
				0.986866 0.0398257 0.0 
				0.99644 0.0299118 0.0 
				0.972932 0.0317932 0.0 
				0.985312 0.0258168 0.0 
				0.963298 0.0203357 0.0 
				0.97691 0.018721 0.0 
				0.958403 0.0069928 0.0 
				0.971772 0.0097902 0.0 
				0.958403 -0.00699208 0.0 
				0.970044 2.99636e-07 0.0 
				0.963298 -0.0203349 0.0 
				0.971772 -0.00978962 0.0 
				0.972932 -0.0317925 0.0 
				0.97691 -0.0187204 0.0 
				0.986866 -0.0398251 0.0 
				0.985312 -0.0258162 0.0 
				1.00392 -0.0427468 0.0 
				0.99644 -0.0299113 0.0 
				1.02183 -0.0391495 0.0 
				1.00909 -0.0298541 0.0 
				1.0373 -0.0286371 0.0 
				1.02129 -0.0249246 0.0 
				1.04674 -0.0125735 0.0 
				1.03048 -0.0154021 0.0 
				1.04764 0.00581357 0.0 
				1.0344 -0.00292845 0.0 
				1.03983 0.0224024 0.0 
				1.032 0.00979329 0.0 
				1.0256 0.0338441 0.0 
				1.02409 0.0199788 0.0 
				1.0083 0.0386502 0.0 
				1.01279 0.0258382 0.0 
				0.990795 0.0371281 0.0 
				1.00043 0.0269441 0.0 
				0.974686 0.0304983 0.0 
				0.988462 0.0239469 0.0 
				0.963736 0.0201032 0.0 
				0.977384 0.0178776 0.0 
				0.931193 0.00608872 0.0 
				0.965333 0.00945024 0.0 
				0.975626 -0.00351881 0.0 
				0.949697 -2.94189e-07 0.0 
				0.99202 -0.00484202 0.0 
				0.987099 -0.00493883 0.0 
				0.996107 -0.00722342 0.0 
				0.99019 -0.00913818 0.0 
				0.999672 -0.00867609 0.0 
				0.996155 -0.0117056 0.0 
				1.00345 -0.00890797 0.0 
				1.00159 -0.0129904 0.0 
				1.00726 -0.00762068 0.0 
				1.00728 -0.0123333 0.0 
				1.01035 -0.00479428 0.0 
				1.01252 -0.00941379 0.0 
				1.01194 -0.000811641 0.0 
				1.01613 -0.00444196 0.0 
				1.01149 0.00353553 0.0 
				1.01709 0.00172409 0.0 
				1.00906 0.0072992 0.0 
				1.01504 0.00776043 0.0 
				1.00523 0.00972792 0.0 
				1.01044 0.0123572 0.0 
				1.00086 0.0105034 0.0 
				1.00442 0.0147122 0.0 
				0.996721 0.00972534 0.0 
				0.998205 0.01469 0.0 
				0.993364 0.00773395 0.0 
				0.99277 0.0126477 0.0 
				0.991069 0.00493108 0.0 
				0.988698 0.00915236 0.0 
				0.989903 0.001691 0.0 
				0.986222 0.00477397 0.0 
				0.989903 -0.00169067 0.0 
				0.985405 2.0283e-07 0.0 
				0.991069 -0.00493076 0.0 
				0.986222 -0.00477357 0.0 
				0.993364 -0.00773365 0.0 
				0.988698 -0.00915197 0.0 
				0.996721 -0.00972507 0.0 
				0.99277 -0.0126473 0.0 
				1.00086 -0.0105032 0.0 
				0.998205 -0.0146896 0.0 
				1.00523 -0.00972776 0.0 
				1.00442 -0.0147119 0.0 
				1.00906 -0.00729913 0.0 
				1.01044 -0.012357 0.0 
				1.01149 -0.00353555 0.0 
				1.01504 -0.00776036 0.0 
				1.01194 0.000811516 0.0 
				1.01709 -0.00172415 0.0 
				1.01035 0.00479406 0.0 
				1.01613 0.00444177 0.0 
				1.00726 0.00762037 0.0 
				1.01252 0.00941349 0.0 
				1.00345 0.00890761 0.0 
				1.00728 0.0123329 0.0 
				0.999671 0.00867565 0.0 