<VTKFile type="UnstructuredGrid" version="0.1" byte_order="LittleEndian">
<UnstructuredGrid>
	<Piece NumberOfPoints="1485" NumberOfCells="2857">
		<PointData Scalars="density" Vectors="velocity">
			<DataArray type="Float64" Name="density" Format="ascii">
				0.282418
				0.249581
				0.249757
				0.250113
				0.250442
				0.273482
				0.268043
				0.264482
				0.261347
				0.258562
				0.256157
				0.254201
				0.252675
				0.251623
				0.250992
				0.252795
				0.245324
				0.190962
				0.171912
				0.173163
				0.174267
				0.175181
				0.176189
				0.177233
				0.178408
				0.179772
				0.181342
				0.183046
				0.184899
				0.186963
				0.18945
				0.192088
				0.195085
				0.198596
				0.201974
				0.205962
				0.210158
				0.214373
				0.21911
				0.225249
				0.232869
				0.242378
				0.25538
				0.272643
				0.297773
				0.33083
				0.344994
				0.316318
				0.275613
				0.249025
				0.233128
				0.221039
				0.212345
				0.205113
				0.199509
				0.1949
				0.191009
				0.187334
				0.183967
				0.181038
				0.17796
				0.175119
				0.17245
				0.169985
				0.167746
				0.165648
				0.163768
				0.16204
				0.160517
				0.159206
				0.15811
				0.157207
				0.156459
				0.155721
				0.154963
				0.154196
				0.153477
				0.152589
				0.151409
				0.15042
				0.149964
				0.149895
				0.150332
				0.219124
				0.266998
				0.260897
				0.266586
				0.268882
				0.274487
				0.249714
				0.249887
				0.249864
				0.249818
				0.249699
				0.249678
				0.249928
				0.250064
				0.250125
				0.250128
				0.250118
				0.25013
				0.250123
				0.250141
				0.250167
				0.250242
				0.250325
				0.250387
				0.250439
				0.250429
				0.250294
				0.250164
				0.250074
				0.249922
				0.336036
				0.333831
				0.316609
				0.318169
				0.327871
				0.296839
				0.292044
				0.27042
				0.322748
				0.322253
				0.303453
				0.289481
				0.307187
				0.271857
				0.251937
				0.309912
				0.317317
				0.317445
				0.289338
				0.27526
				0.25714
				0.256123
				0.236395
				0.273113
				0.310875
				0.31135
				0.293381
				0.243983
				0.224786
				0.242557
				0.299268
				0.275532
				0.259072
				0.28594
				0.309725
				0.234416
				0.215525
				0.307817
				0.30259
				0.208013
				0.30757
				0.220736
				0.226701
				0.259721
				0.272848
				0.230512
				0.247368
				0.202076
				0.215947
				0.301765
				0.302538
				0.285223
				0.220641
				0.197298
				0.23772
				0.293453
				0.301804
				0.246127
				0.292821
				0.260462
				0.211427
				0.274568
				0.282555
				0.30208
				0.275797
				0.193095
				0.212717
				0.207034
				0.229929
				0.299532
				0.295277
				0.189276
				0.260731
				0.203136
				0.29918
				0.271754
				0.206068
				0.234198
				0.224216
				0.249552
				0.270612
				0.18585
				0.199425
				0.294463
				0.278836
				0.285295
				0.18256
				0.201288
				0.219112
				0.29484
				0.195979
				0.287867
				0.224317
				0.240224
				0.248085
				0.179425
				0.266181
				0.277684
				0.280429
				0.295774
				0.260949
				0.196622
				0.192993
				0.214133
				0.272822
				0.29466
				0.295099
				0.176461
				0.279379
				0.277175
				0.190301
				0.271613
				0.272538
				0.215669
				0.232808
				0.173726
				0.192852
				0.209817
				0.187884
				0.292435
				0.289561
				0.171195
				0.2605
				0.272877
				0.26421
				0.185791
				0.188767
				0.211118
				0.270336
				0.27408
				0.168871
				0.235971
				0.227545
				0.205374
				0.25099
				0.292104
				0.183872
				0.166737
				0.266699
				0.185443
				0.182125
				0.288172
				0.20159
				0.164793
				0.270713
				0.278674
				0.204693
				0.180546
				0.222049
				0.163046
				0.289771
				0.182015
				0.17917
				0.223748
				0.197915
				0.161513
				0.283887
				0.288575
				0.283402
				0.241874
				0.270511
				0.17795
				0.248902
				0.258802
				0.160191
				0.289936
				0.260264
				0.179008
				0.201496
				0.176834
				0.15908
				0.288861
				0.216654
				0.194981
				0.273161
				0.175789
				0.273573
				0.263321
				0.158136
				0.174748
				0.176055
				0.270325
				0.157276
				0.269989
				0.173988
				0.156442
				0.192182
				0.288467
				0.277037
				0.237142
				0.172157
				0.195934
				0.155618
				0.268176
				0.221265
				0.154808
				0.173438
				0.212262
				0.257959
				0.153909
				0.250293
				0.189791
				0.152859
				0.254627
				0.252394
				0.151874
				0.252575
				0.151139
				0.286205
				0.254137
				0.150558
				0.255714
				0.148504
				0.170952
				0.260528
				0.192983
				0.283924
				0.257942
				0.187457
				0.259927
				0.213409
				0.175439
				0.207272
				0.268633
				0.231158
				0.168748
				0.237096
				0.249209
				0.185509
				0.271491
				0.271008
				0.269695
				0.166688
				0.188249
				0.18364
				0.286035
				0.281402
				0.203618
				0.277095
				0.164924
				0.182059
				0.285129
				0.224369
				0.163297
				0.269063
				0.185759
				0.267228
				0.18053
				0.200938
				0.285467
				0.161933
				0.179225
				0.160687
				0.181601
				0.177984
				0.249284
				0.282863
				0.204061
				0.283441
				0.284777
				0.159575
				0.226321
				0.19711
				0.176788
				0.220406
				0.25929
				0.158533
				0.265765
				0.17595
				0.265647
				0.157607
				0.179451
				0.173485
				0.156681
				0.269744
				0.195075
				0.190998
				0.155655
				0.240243
				0.245668
				0.154568
				0.268331
				0.252907
				0.15382
				0.175808
				0.252522
				0.153181
				0.266902
				0.213816
				0.253196
				0.152415
				0.254069
				0.151979
				0.274416
				0.191745
				0.267797
				0.255596
				0.262881
				0.221145
				0.149812
				0.257458
				0.259807
				0.266069
				0.282853
				0.27043
				0.174038
				0.262572
				0.280977
				0.278709
				0.190065
				0.195656
				0.170932
				0.20918
				0.258083
				0.231249
				0.187307
				0.238763
				0.217298
				0.169584
				0.266082
				0.27009
				0.250055
				0.186035
				0.166988
				0.183705
				0.2685
				0.268016
				0.269157
				0.165967
				0.281237
				0.280482
				0.188284
				0.182618
				0.163793
				0.203079
				0.18064
				0.266955
				0.162882
				0.276806
				0.272942
				0.280354
				0.280468
				0.17974
				0.161039
				0.26428
				0.277861
				0.178178
				0.279907
				0.160291
				0.178139
				0.221285
				0.158783
				0.27865
				0.231927
				0.246259
				0.179365
				0.157915
				0.181876
				0.207917
				0.215313
				0.156467
				0.254488
				0.197029
				0.256016
				0.156187
				0.263519
				0.256063
				0.155228
				0.252476
				0.154857
				0.252345
				0.255046
				0.153326
				0.255062
				0.153619
				0.243481
				0.256903
				0.175239
				0.258904
				0.261032
				0.264532
				0.266914
				0.265242
				0.176462
				0.267712
				0.191986
				0.270857
				0.263754
				0.264567
				0.26598
				0.267503
				0.277486
				0.27639
				0.199343
				0.274232
				0.171961
				0.21313
				0.187775
				0.222708
				0.256491
				0.234363
				0.263866
				0.276863
				0.168043
				0.184175
				0.164585
				0.265369
				0.191731
				0.275822
				0.236797
				0.181374
				0.264181
				0.206038
				0.26636
				0.161519
				0.276618
				0.189681
				0.262757
				0.275701
				0.261264
				0.159298
				0.246935
				0.241178
				0.264274
				0.272676
				0.269127
				0.273468
				0.157685
				0.254231
				0.262736
				0.185228
				0.262608
				0.154666
				0.253879
				0.274497
				0.221656
				0.169535
				0.259841
				0.247459
				0.19972
				0.2129
				0.22508
				0.256195
				0.261911
				0.264761
				0.27412
				0.179725
				0.19445
				0.264461
				0.262452
				0.267572
				0.261396
				0.265742
				0.174865
				0.203915
				0.189939
				0.26327
				0.27301
				0.228218
				0.257305
				0.216747
				0.272315
				0.270261
				0.170476
				0.253712
				0.238424
				0.186534
				0.262497
				0.260708
				0.166508
				0.273463
				0.183122
				0.260648
				0.272589
				0.242049
				0.196114
				0.271575
				0.16351
				0.21311
				0.209483
				0.262932
				0.272534
				0.161243
				0.272253
				0.250436
				0.2536
				0.159098
				0.261952
				0.251992
				0.232574
				0.164061
				0.260351
				0.264191
				0.189519
				0.26576
				0.255922
				0.259018
				0.268991
				0.202979
				0.269599
				0.270989
				0.218398
				0.228495
				0.183581
				0.259719
				0.264546
				0.262186
				0.197315
				0.269785
				0.263561
				0.259116
				0.178157
				0.26224
				0.24927
				0.192942
				0.261306
				0.258989
				0.264089
				0.208525
				0.234139
				0.257455
				0.173265
				0.220104
				0.189416
				0.269122
				0.240389
				0.266805
				0.268786
				0.169431
				0.269376
				0.195314
				0.260873
				0.166276
				0.239046
				0.200664
				0.163404
				0.254578
				0.267876
				0.16043
				0.212922
				0.269452
				0.193505
				0.269248
				0.253039
				0.257292
				0.258332
				0.260828
				0.259271
				0.259627
				0.261289
				0.193604
				0.258218
				0.205925
				0.249771
				0.262678
				0.222082
				0.267684
				0.26621
				0.265621
				0.231554
				0.186956
				0.200329
				0.266878
				0.25732
				0.261696
				0.256974
				0.242923
				0.26144
				0.180943
				0.266683
				0.196125
				0.261444
				0.260721
				0.262309
				0.17646
				0.212689
				0.260378
				0.193187
				0.257904
				0.25879
				0.2235
				0.172361
				0.253416
				0.222195
				0.168755
				0.243107
				0.265768
				0.23422
				0.250001
				0.258317
				0.263793
				0.265696
				0.16573
				0.267069
				0.164359
				0.204752
				0.250433
				0.230836
				0.253987
				0.256668
				0.266174
				0.215965
				0.264726
				0.266175
				0.196397
				0.208423
				0.259077
				0.257831
				0.259271
				0.264455
				0.259931
				0.224461
				0.189767
				0.264459
				0.203703
				0.263277
				0.235333
				0.264779
				0.262343
				0.244972
				0.259577
				0.185906
				0.201433
				0.259095
				0.256034
				0.25417
				0.256494
				0.247091
				0.179949
				0.256846
				0.206707
				0.263814
				0.263627
				0.216353
				0.258599
				0.176616
				0.235343
				0.226508
				0.171786
				0.25496
				0.256424
				0.25862
				0.16624
				0.251374
				0.189536
				0.259976
				0.235502
				0.262923
				0.263853
				0.257544
				0.260993
				0.206436
				0.262722
				0.21716
				0.263232
				0.244242
				0.262009
				0.254708
				0.19862
				0.211617
				0.261628
				0.255335
				0.257393
				0.227824
				0.23645
				0.250087
				0.256147
				0.253261
				0.257093
				0.188966
				0.260723
				0.259193
				0.215926
				0.257979
				0.240534
				0.262053
				0.255994
				0.254729
				0.179118
				0.216227
				0.240894
				0.261475
				0.25821
				0.255485
				0.253078
				0.255934
				0.254459
				0.225487
				0.190519
				0.257775
				0.261123
				0.254671
				0.245454
				0.258248
				0.257116
				0.26126
				0.260467
				0.258797
				0.260674
				0.260368
				0.256189
				0.259695
				0.203779
				0.218571
				0.232491
				0.245522
				0.242981
				0.253325
				0.259543
				0.252714
				0.255169
				0.249205
				0.253962
				0.23847
				0.256118
				0.19289
				0.254722
				0.259545
				0.228859
				0.256647
				0.258573
				0.181252
				0.259788
				0.247924
				0.254154
				0.25338
				0.254204
				0.255653
				0.256019
				0.253385
				0.25755
				0.259351
				0.219389
				0.259101
				0.228371
				0.205712
				0.256736
				0.256762
				0.253292
				0.259086
				0.255835
				0.258576
				0.256835
				0.242201
				0.258654
				0.252552
				0.258351
				0.254843
				0.257847
				0.207249
				0.2579
				0.226997
				0.24585
				0.250386
				0.252884
				0.231288
				0.196974
				0.256087
				0.252177
				0.239605
				0.250569
				0.257733
				0.254023
				0.237622
				0.25463
				0.254891
				0.180885
				0.255323
				0.257959
				0.253576
				0.257936
				0.256756
				0.253248
				0.252769
				0.255176
				0.251976
				0.254171
				0.257494
				0.256085
				0.22066
				0.257304
				0.232982
				0.225027
				0.252545
				0.257337
				0.246098
				0.248989
				0.257092
				0.254633
				0.239402
				0.256585
				0.257002
				0.255281
				0.209485
				0.235301
				0.241605
				0.251078
				0.256201
				0.256783
				0.25391
				0.245788
				0.256251
				0.195374
				0.252218
				0.232139
				0.250833
				0.251408
				0.253341
				0.250904
				0.253005
				0.25605
				0.252453
				0.253401
				0.254139
				0.253789
				0.256403
				0.250899
				0.255229
				0.254233
				0.251344
				0.241165
				0.22238
				0.256153
				0.253131
				0.255639
				0.237723
				0.252648
				0.255064
				0.225764
				0.246704
				0.256024
				0.252072
				0.255303
				0.209788
				0.241707
				0.255717
				0.246838
				0.250446
				0.253545
				0.253921
				0.248756
				0.254819
				0.250266
				0.255447
				0.253028
				0.243123
				0.249228
				0.251668
				0.234368
				0.254828
				0.249797
				0.25143
				0.251463
				0.252542
				0.244841
				0.253035
				0.254668
				0.25519
				0.251707
				0.255158
				0.253214
				0.252898
				0.253368
				0.253947
				0.24997
				0.223422
				0.251016
				0.226403
				0.241793
				0.254995
				0.243962
				0.248588
				0.251929
				0.254268
				0.253961
				0.255034
				0.245978
				0.251387
				0.254138
				0.254592
				0.252772
				0.252795
				0.250124
				0.253635
				0.254375
				0.249869
				0.252112
				0.237091
				0.248669
				0.251799
				0.245207
				0.250622
				0.250178
				0.254195
				0.252383
				0.248777
				0.242782
				0.251689
				0.250624
				0.253628
				0.253664
				0.252497
				0.254155
				0.225507
				0.25276
				0.252164
				0.252914
				0.24513
				0.2507
				0.254003
				0.244175
				0.249255
				0.23044
				0.248836
				0.251069
				0.248608
				0.253149
				0.253194
				0.250696
				0.253171
				0.234604
				0.253682
				0.252095
				0.251119
				0.251941
				0.252701
				0.25131
				0.249169
				0.253532
				0.237963
				0.249808
				0.247939
				0.246747
				0.249721
				0.251619
				0.249705
				0.253335
				0.251999
				0.250214
				0.25282
				0.251338
				0.234159
				0.248472
				0.242656
				0.251937
				0.253353
				0.247539
				0.252772
				0.251638
				0.252111
				0.25043
				0.249005
				0.244839
				0.253084
				0.24922
				0.250498
				0.249878
				0.252552
				0.252395
				0.250319
				0.252431
				0.252892
				0.251568
				0.251199
				0.24842
				0.250827
				0.251296
				0.237401
				0.251995
				0.252865
				0.249206
				0.248125
				0.241067
				0.239849
				0.249482
				0.252575
				0.249706
				0.251251
				0.251593
				0.251123
				0.252186
				0.250003
				0.251464
				0.248326
				0.252691
				0.249031
				0.252103
				0.251188
				0.251503
				0.245911
				0.250302
				0.245314
				0.248915
				0.252392
				0.249687
				0.250383
				0.250059
				0.252088
				0.251797
				0.25011
				0.251869
				0.25235
				0.241737
				0.240389
				0.251188
				0.250164
				0.248545
				0.250804
				0.251089
				0.251469
				0.2508
				0.249147
				0.249413
				0.252341
				0.25203
				0.249
				0.243481
				0.251263
				0.249863
				0.251051
				0.251704
				0.249844
				0.252185
				0.251131
				0.248049
				0.249853
				0.24521
				0.251602
				0.250883
				0.251057
				0.250111
				0.247155
				0.251977
				0.249952
				0.249349
				0.243208
				0.250612
				0.249661
				0.251868
				0.251355
				0.251827
				0.250015
				0.249969
				0.251444
				0.251869
				0.2509
				0.248772
				0.249827
				0.250986
				0.251088
				0.25048
				0.249423
				0.251952
				0.251574
				0.250614
				0.251029
				0.250655
				0.248847
				0.245434
				0.247866
				0.251327
				0.251783
				0.249695
				0.250895
				0.245468
				0.250283
				0.251287
				0.250055
				0.251228
				0.250663
				0.25076
				0.250013
				0.250243
				0.251532
				0.248089
				0.249278
				0.250701
				0.249368
				0.245076
				0.249671
				0.251029
				0.251609
				0.251122
				0.249872
				0.251536
				0.250167
				0.249136
				0.250703
				0.250887
				0.25025
				0.250812
				0.250313
				0.251624
				0.251265
				0.250804
				0.247382
				0.250847
				0.248898
				0.250523
				0.247016
				0.251048
				0.251461
				0.249641
				0.246159
				0.250728
				0.248768
				0.250515
				0.250036
				0.251215
				0.25095
				0.250507
				0.250498
				0.250542
				0.251281
				0.248554
				0.249287
				0.250738
				0.251196
				0.24966
				0.249671
				0.250789
				0.25088
				0.251389
				0.246649
				0.251228
				0.249883
				0.250561
				0.250287
				0.249262
				0.250482
				0.24739
				0.250615
				0.250172
				0.251356
				0.250994
				0.250846
				0.250726
				0.248693
				0.249275
				0.250458
				0.247874
				0.250829
				0.251203
				0.247102
				0.249673
				0.250604
				0.250612
				0.251111
				0.249919
				0.250622
				0.250743
				0.250434
				0.250402
				0.250993
				0.248758
				0.24995
				0.249238
				0.249636
				0.250696
				0.250675
				0.247859
				0.250616
				0.251198
				0.251017
				0.249824
				0.250481
				0.248038
				0.249388
				0.250603
				0.250479
				0.250841
				0.251136
				0.250118
				0.250808
				0.25063
				0.249592
				0.250258
				0.250663
				0.25099
				0.247868
				0.249661
				0.249014
				0.250523
				0.250672
				0.251004
				0.249764
				0.250587
				0.249895
				0.250328
				0.250316
				0.250854
				0.248734
				0.249149
				0.250637
				0.250787
				0.249366
				0.250554
				0.251033
				0.249741
				0.250825
				0.250488
				0.249799
				0.250632
				0.248455
				0.250396
				0.248514
				0.250632
				0.249454
				0.250811
				0.250383
				0.250953
				0.250643
				0.250105
				0.250563
				0.249733
				0.250141
				0.250218
				0.250529
				0.250817
				0.249617
				0.250459
				0.249684
				0.248433
				0.249311
				0.2509
				0.250681
				0.24916
				0.250662
				0.250467
				0.250276
				0.250261
				0.249922
				0.2506
				0.250439
				0.250889
				0.250662
				0.249463
				0.25039
				0.249833
				0.248705
				0.249805
				0.250347
				0.248875
				0.249513
				0.250765
				0.249025
				0.250622
				0.250312
				0.2508
				0.25052
				0.250105
				0.250521
				0.250208
				0.250007
				0.249836
				0.250416
				0.250664
				0.248944
				0.249516
				0.250419
				0.249721
				0.249507
				0.250663
				0.250802
				0.250371
				0.250522
				0.250244
				0.249284
				0.250224
				0.250568
				0.24916
				0.250765
				0.250526
				0.250345
				0.249913
				0.250315
				0.249904
				0.249813
				0.250321
				0.249596
				0.25071
				0.249598
				0.250598
				0.250261
				0.250663
				0.250405
				0.24984
				0.250142
				0.250487
				0.250118
				0.249155
				0.249262
				0.250535
				0.25032
				0.249936
				0.250402
				0.24974
				0.250637
				0.249523
				0.249654
				0.25071
				0.25029
				0.250386
				0.250218
				0.250198
				0.249493
				0.249919
				0.250547
				0.249454
				0.250656
				0.250389
				0.250256
				0.250247
				0.24999
				0.250312
				0.249835
				0.250656
				0.249773
				0.249644
				0.249714
				0.250056
				0.250585
				0.250214
				0.250534
				0.250291
				0.250493
				0.250136
				0.249357
				0.249374
				0.250136
				0.250408
				0.250232
				0.249468
				0.250396
				0.250659
				0.24978
				0.249538
				0.250633
				0.249887
				0.250217
				0.250275
				0.250205
				0.250196
				0.249883
				0.249574
				0.249644
				0.250575
				0.250535
				0.250323
				0.2502
				0.250203
				0.250326
				0.250083
				0.250655
				0.249824
				0.249617
				0.249985
				0.249672
				0.249762
				0.249483
				0.250442
				0.250653
				0.250205
				0.250225
				0.25054
				0.250165
				0.250123
				0.250202
				0.24949
				0.249779
				0.249363
				0.250575
			</DataArray>
			<DataArray type="Float64" Name="mach-number" Format="ascii">
				0.592347
				0.848598
				0.851263
				0.849487
				0.84895
				0.682111
				0.720618
				0.740941
				0.758799
				0.774114
				0.787511
				0.798158
				0.806182
				0.812021
				0.814256
				0.806539
				0.826397
				1.12286
				1.27652
				1.27529
				1.26952
				1.26424
				1.25829
				1.25214
				1.24523
				1.23722
				1.22801
				1.21808
				1.2073
				1.19537
				1.18102
				1.16594
				1.14881
				1.129
				1.11001
				1.08777
				1.06451
				1.04123
				1.01501
				0.980794
				0.938311
				0.884985
				0.811593
				0.711123
				0.552187
				0.295663
				0.092214
				0.407749
				0.666802
				0.820377
				0.915156
				0.986755
				1.03829
				1.0808
				1.11389
				1.1412
				1.16419
				1.18592
				1.20595
				1.22347
				1.24194
				1.25913
				1.27536
				1.29048
				1.30428
				1.31732
				1.32906
				1.33993
				1.34956
				1.35789
				1.36489
				1.37067
				1.37547
				1.38021
				1.3851
				1.39006
				1.3947
				1.40045
				1.40821
				1.41485
				1.4186
				1.42515
				1.4818
				0.891028
				0.68729
				0.707627
				0.68059
				0.670091
				0.629269
				0.849889
				0.850947
				0.850955
				0.851115
				0.851485
				0.851394
				0.850601
				0.849992
				0.849607
				0.849525
				0.849509
				0.849417
				0.84945
				0.849386
				0.849318
				0.849098
				0.848946
				0.848967
				0.849183
				0.849282
				0.849407
				0.849506
				0.849828
				0.849908
				0.269991
				0.289621
				0.442514
				0.430415
				0.360197
				0.570883
				0.60656
				0.726037
				0.404809
				0.407003
				0.539886
				0.63057
				0.514809
				0.725705
				0.830821
				0.498993
				0.447354
				0.44521
				0.626288
				0.714078
				0.811902
				0.813268
				0.916366
				0.720032
				0.491013
				0.491208
				0.606432
				0.879668
				0.980351
				0.890108
				0.566492
				0.709685
				0.797735
				0.646995
				0.501116
				0.931765
				1.03146
				0.512781
				0.5503
				1.07313
				0.517343
				1.00638
				0.973837
				0.795269
				0.722303
				0.955073
				0.861456
				1.10661
				1.03243
				0.551798
				0.551215
				0.653478
				1.00835
				1.13348
				0.913779
				0.6059
				0.554061
				0.869356
				0.607014
				0.790775
				1.05712
				0.714888
				0.668276
				0.55083
				0.58574
				1.1573
				1.05186
				1.08123
				0.956245
				0.566497
				0.595638
				1.17898
				0.790421
				1.10278
				0.572164
				0.729452
				1.08803
				0.933527
				0.987109
				0.849771
				0.629292
				1.19867
				1.1235
				0.597645
				0.658395
				0.654043
				1.21766
				1.11382
				1.01457
				0.598913
				1.1429
				0.638084
				0.986877
				0.900464
				0.858407
				1.23593
				0.643604
				0.590633
				0.634987
				0.590848
				0.788462
				1.13949
				1.15972
				1.04172
				0.724758
				0.599307
				0.594408
				1.25335
				0.687439
				0.674151
				1.17494
				0.704513
				0.643147
				1.03436
				0.940697
				1.26956
				1.16018
				1.06523
				1.18866
				0.610529
				0.629184
				1.28471
				0.791237
				0.598271
				0.660707
				1.20059
				1.18309
				1.05867
				0.737645
				0.68487
				1.29871
				0.923829
				0.968492
				1.08954
				0.842664
				0.615836
				1.21158
				1.31168
				0.732591
				1.20174
				1.22162
				0.636151
				1.11045
				1.32358
				0.62265
				0.691529
				1.09431
				1.23075
				0.998181
				1.33435
				0.627216
				1.22135
				1.23871
				0.990171
				1.13035
				1.34385
				0.6617
				0.63575
				0.664127
				0.892013
				0.628411
				1.24581
				0.854315
				0.689923
				1.35209
				0.625612
				0.793358
				1.23862
				1.11193
				1.25231
				1.35903
				0.632129
				1.02748
				1.14638
				0.702904
				1.25846
				0.700097
				0.752781
				1.36496
				1.26476
				1.25587
				0.738747
				1.37036
				0.682567
				1.27066
				1.37565
				1.16182
				0.636837
				0.701375
				0.917956
				1.29126
				1.14287
				1.38086
				0.648334
				0.943505
				1.38603
				1.27122
				1.05108
				0.78616
				1.39178
				0.823878
				1.17508
				1.39857
				0.690442
				0.814169
				1.40492
				0.812695
				1.40948
				0.64827
				0.804665
				1.41206
				0.795698
				1.41662
				1.28603
				0.768605
				1.1598
				0.662207
				0.782965
				1.1882
				0.795474
				1.04662
				1.13711
				1.07788
				0.748396
				0.949992
				1.29919
				0.918423
				0.853389
				1.19916
				0.654644
				0.713191
				0.72154
				1.31169
				1.18631
				1.20984
				0.651158
				0.676511
				1.09791
				0.701213
				1.32238
				1.21886
				0.655175
				0.986664
				1.33241
				0.66943
				1.2012
				0.665915
				1.22772
				1.11264
				0.653016
				1.34077
				1.23525
				1.34856
				1.22469
				1.24256
				0.853146
				0.668688
				1.09836
				0.664517
				0.656495
				1.35546
				0.976733
				1.13394
				1.2495
				1.00804
				0.799965
				1.36206
				0.677071
				1.25429
				0.744658
				1.36785
				1.23804
				1.26568
				1.37376
				0.72209
				1.1459
				1.14732
				1.38028
				0.902562
				0.849243
				1.38732
				0.749728
				0.81977
				1.39205
				1.25881
				0.817631
				1.39626
				0.685045
				1.04354
				0.816303
				1.40188
				0.811542
				1.40685
				0.716473
				1.16433
				0.715581
				0.801879
				0.698141
				0.864728
				1.44522
				0.791087
				0.778158
				0.679235
				0.669213
				0.718121
				1.27026
				0.762334
				0.679307
				0.692281
				1.17477
				1.14574
				1.28805
				1.06955
				0.805783
				0.950599
				1.18988
				0.910133
				1.02508
				1.2972
				0.763059
				0.687922
				0.850159
				1.19828
				1.31208
				1.21088
				0.728499
				0.733074
				0.695026
				1.31938
				0.676523
				0.682782
				1.18801
				1.21836
				1.3318
				1.10371
				1.22894
				0.702839
				1.33853
				0.703354
				0.724362
				0.682868
				0.681621
				1.23535
				1.349
				0.705293
				0.697218
				1.24343
				0.684615
				1.35474
				1.24407
				1.00409
				1.36317
				0.692595
				0.946765
				0.869343
				1.24095
				1.36976
				1.22537
				1.07638
				0.995005
				1.37793
				0.801272
				1.13812
				0.817467
				1.38073
				0.689367
				0.797373
				1.38585
				0.817942
				1.3895
				0.816465
				0.787683
				1.3958
				0.802501
				1.40137
				0.885611
				0.791861
				1.21665
				0.782309
				0.770094
				0.740437
				0.736813
				0.766628
				1.25747
				0.710606
				1.16711
				0.736471
				0.753897
				0.710237
				0.738908
				0.733661
				0.699894
				0.706123
				1.12392
				0.717428
				1.28456
				1.04902
				1.19151
				0.995689
				0.813906
				0.933569
				0.774123
				0.702222
				1.30847
				1.21241
				1.32983
				0.747496
				1.1669
				0.708931
				0.920172
				1.2281
				0.699929
				1.08815
				0.740146
				1.34902
				0.70355
				1.1657
				0.711553
				0.709213
				0.702518
				1.36303
				0.865926
				0.861355
				0.701623
				0.726476
				0.74558
				0.721865
				1.37325
				0.811783
				0.728423
				1.20433
				0.692598
				1.39668
				0.810262
				0.716789
				0.866679
				1.23956
				0.776391
				0.862297
				1.12333
				1.04826
				0.98323
				0.815675
				0.714035
				0.686719
				0.718511
				1.23656
				1.15303
				0.754218
				0.781768
				0.753525
				0.72296
				0.747214
				1.26553
				1.09764
				1.17881
				0.750461
				0.725176
				0.965531
				0.793585
				1.02858
				0.728504
				0.739563
				1.29215
				0.829307
				0.91147
				1.19888
				0.764694
				0.791063
				1.31658
				0.720595
				1.22166
				0.731041
				0.726303
				0.89209
				1.14155
				0.732487
				1.33529
				1.01612
				1.06816
				0.761893
				0.727036
				1.3496
				0.729064
				0.846728
				0.819102
				1.36327
				0.719829
				0.828552
				0.835109
				1.32426
				0.726793
				0.759747
				1.1792
				0.76414
				0.808456
				0.789164
				0.745827
				1.10402
				0.743307
				0.736098
				1.01863
				0.964719
				1.21365
				0.72715
				0.712047
				0.721231
				1.13574
				0.742651
				0.765918
				0.800439
				1.24577
				0.770823
				0.853424
				1.16048
				0.762235
				0.736632
				0.772717
				1.0734
				0.934105
				0.808795
				1.27497
				1.00987
				1.17968
				0.746206
				0.900874
				0.758647
				0.747203
				1.29819
				0.744253
				1.14205
				0.782523
				1.31744
				0.887463
				1.11725
				1.3349
				0.821807
				0.752821
				1.34952
				1.04876
				0.744438
				1.09084
				0.745563
				0.826889
				0.804904
				0.7327
				0.776385
				0.751929
				0.75473
				0.748347
				1.15703
				0.766655
				1.08736
				0.850638
				0.781146
				0.999501
				0.753732
				0.761989
				0.76467
				0.947783
				1.19498
				1.11852
				0.758374
				0.740793
				0.755292
				0.811795
				0.888102
				0.779888
				1.22911
				0.759857
				1.14161
				0.780315
				0.791533
				0.748461
				1.25485
				1.05052
				0.784338
				1.15826
				0.757926
				0.775809
				0.990969
				1.27877
				0.831947
				0.977371
				1.30007
				0.886906
				0.764507
				0.934248
				0.840761
				0.798305
				0.775223
				0.764693
				1.31889
				0.757337
				1.33429
				1.09396
				0.847495
				0.866329
				0.820853
				0.752301
				0.762315
				1.03198
				0.770179
				0.762156
				1.1394
				1.07281
				0.789683
				0.769632
				0.761593
				0.733886
				0.796121
				0.9863
				1.17654
				0.772263
				1.09849
				0.777976
				0.928225
				0.769706
				0.783114
				0.876593
				0.791763
				1.19764
				1.11178
				0.752585
				0.756524
				0.827545
				0.773461
				0.865473
				1.23236
				0.813315
				1.07991
				0.775388
				0.776596
				1.02881
				0.796929
				1.25187
				0.918359
				0.975182
				1.28133
				0.817107
				0.775061
				0.796028
				1.32172
				0.837779
				1.11202
				0.789483
				0.926954
				0.780166
				0.774931
				0.793486
				0.790731
				1.08256
				0.781289
				1.0258
				0.778125
				0.80943
				0.784833
				0.760237
				1.12639
				1.05705
				0.787285
				0.77286
				0.801615
				0.967767
				0.922049
				0.849392
				0.765094
				0.832302
				0.812005
				1.18182
				0.792114
				0.800488
				1.03148
				0.803139
				0.90036
				0.784847
				0.762204
				0.774181
				1.23795
				1.03014
				0.89413
				0.787966
				0.803078
				0.818907
				0.834938
				0.793071
				0.775508
				0.981316
				1.13249
				0.75545
				0.790124
				0.779853
				0.874041
				0.802978
				0.80666
				0.789
				0.793222
				0.802774
				0.792267
				0.794016
				0.805132
				0.797497
				1.09971
				1.01997
				0.943284
				0.873723
				0.834049
				0.775877
				0.798599
				0.834906
				0.821855
				0.854222
				0.778604
				0.911647
				0.811029
				1.16155
				0.768895
				0.798631
				0.959723
				0.813486
				0.803958
				1.22761
				0.797134
				0.860586
				0.780261
				0.833117