<VTKFile type="UnstructuredGrid" version="0.1" byte_order="LittleEndian">
<UnstructuredGrid>
	<Piece NumberOfPoints="1485" NumberOfCells="2857">
		<CellData Scalars="density" Vectors="velocity">
			<DataArray type="Float64" Name="density" Format="ascii">
				1.12083
				1.1294
				1.10464
				1.10711
				1.10212
				1.13905
				1.1251
				1.10936
				1.12205
				1.05419
				1.06293
				1.05707
				1.11743
				1.12598
				1.1263
				1.05992
				1.13041
				1.113
				1.08646
				1.07465
				0.987728
				1.07993
				1.11985
				1.10071
				1.12213
				0.919378
				1.12424
				1.01477
				1.07436
				1.08859
				1.11296
				1.06831
				1.0816
				1.04509
				1.04861
				0.938223
				0.988188
				0.942546
				1.12469
				1.00627
				1.10279
				1.11555
				0.91883
				1.11356
				1.01911
				0.965152
				1.12123
				1.09187
				0.930033
				0.935002
				1.08264
				1.10986
				0.933923
				1.00923
				1.06009
				1.06102
				0.972251
				0.910815
				1.02284
				1.11662
				0.964655
				0.957301
				0.952533
				0.946923
				1.10856
				1.08474
				1.11182
				0.972346
				0.943255
				0.971424
				1.1136
				0.944987
				0.932991
				1.08285
				0.913813
				1.10416
				1.02585
				0.964512
				0.991981
				0.965129
				1.05163
				0.981949
				1.04976
				0.955696
				0.96282
				1.11504
				1.02064
				1.00014
				1.11188
				0.99692
				0.970982
				1.08579
				0.937314
				1.10601
				1.09785
				1.08776
				0.983111
				1.03106
				0.951263
				1.09901
				1.10548
				1.02667
				1.05663
				1.1105
				0.997778
				1.01755
				1.01422
				0.978991
				1.05898
				0.998663
				0.955709
				0.959697
				0.980713
				1.03091
				1.10323
				0.943385
				1.04343
				0.987669
				0.983308
				0.951236
				1.07536
				1.08631
				1.05835
				1.09205
				1.10282
				1.00277
				1.07347
				0.932698
				0.987417
				0.957202
				1.0953
				1.03619
				1.05098
				1.00284
				1.10332
				1.10149
				1.01016
				1.01075
				0.994474
				1.10297
				0.970841
				1.0085
				0.973774
				0.987911
				1.0563
				1.03802
				0.984917
				1.0148
				1.02983
				1.03031
				1.09714
				0.975504
				1.07354
				0.997579
				0.955684
				0.964218
				1.08157
				0.969328
				0.960027
				1.02664
				1.07429
				0.996942
				1.09431
				0.985192
				1.08411
				0.953394
				1.05335
				0.999705
				0.972193
				1.09177
				1.03697
				0.789625
				0.90185
				0.916389
				0.913337
				0.919031
				1.09383
				1.01346
				0.972925
				1.01609
				1.00306
				0.999254
				0.817784
				0.979473
				1.01904
				0.978419
				1.09822
				0.977095
				1.00572
				1.05858
				0.998007
				1.09359
				1.08877
				0.902017
				1.0354
				0.927461
				0.886388
				0.800949
				0.884814
				0.921276
				1.00415
				0.976827
				0.976168
				1.06691
				0.95666
				0.977687
				0.985537
				1.01014
				1.07476
				0.92797
				0.987771
				0.997333
				0.877155
				1.07806
				0.866003
				1.09272
				1.09039
				1.08456
				0.898078
				1.04961
				1.00439
				0.978847
				0.878757
				1.04139
				0.92719
				0.932949
				0.845145
				0.984436
				1.01485
				1.02008
				0.928331
				0.898694
				1.09049
				1.01305
				0.98723
				0.981304
				1.00177
				0.920675
				1.02414
				0.991032
				1.08963
				0.999547
				0.839949
				1.00202
				0.819915
				1.08356
				0.963123
				1.05514
				0.948671
				1.0912
				0.926926
				0.927726
				0.976571
				0.938342
				0.875294
				1.03448
				1.064
				1.00949
				0.958728
				0.870891
				0.983335
				0.92731
				0.836673
				1.0735
				0.975946
				1.01267
				0.886674
				0.997303
				0.980345
				0.94025
				0.923173
				1.08381
				0.905386
				0.89591
				0.929924
				0.954689
				0.857918
				1.01282
				0.90667
				1.07253
				0.897839
				1.08069
				1.08339
				1.05086
				0.988625
				0.960992
				0.914826
				0.871788
				1.04138
				0.995177
				0.949092
				0.965486
				1.00886
				1.08167
				1.02179
				0.932013
				0.849531
				1.00268
				0.938318
				0.963259
				0.989185
				1.01765
				0.963134
				1.07574
				1.02944
				0.994868
				0.941914
				0.995918
				0.852799
				0.93096
				0.926178
				0.922142
				0.925448
				1.00917
				0.871705
				0.883928
				0.925467
				0.864963
				1.08688
				0.914799
				0.942037
				1.05504
				0.916192
				0.928481
				0.932964
				0.908966
				1.07157
				0.967964
				1.01252
				1.05969
				0.916985
				0.859537
				1.0827
				1.03636
				0.876354
				0.922395
				0.991723
				0.992057
				0.988027
				0.868049
				0.929671
				0.914121
				1.00836
				0.941173
				1.08237
				0.924479
				0.933556
				0.914019
				0.98307
				0.913341
				0.960847
				0.992278
				0.918918
				0.880599
				1.06399
				0.983729
				0.921109
				0.875266
				0.824028
				0.933096
				0.905253
				0.960252
				0.943457
				1.08191
				0.911498
				0.960227
				0.93709
				1.06624
				0.803591
				0.908187
				0.951409
				0.889878
				0.927331
				0.86663
				0.923111
				0.993732
				0.952903
				0.948645
				0.972782
				1.04613
				1.07537
				0.85834
				1.08082
				0.866107
				0.914297
				1.04266
				1.01464
				0.908579
				0.927944
				0.924634
				0.968905
				0.996514
				1.02428
				0.995193
				0.932898
				1.02236
				1.01344
				0.928792
				1.07849
				0.931838
				1.00193
				0.963686
				1.07156
				0.904413
				0.869012
				1.03116
				0.987703
				0.875542
				0.93737
				0.922784
				1.01119
				0.931861
				0.911227
				0.928246
				0.912593
				0.948296
				0.932586
				0.929369
				0.901132
				0.890704
				1.07883
				1.05436
				0.967795
				0.941162
				0.864964
				1.05289
				0.898363
				1.0676
				0.924094
				0.994087
				0.964851
				0.977726
				0.896344
				1.00809
				0.932776
				0.915318
				0.943123
				0.909957
				1.03595
				1.07498
				0.878003
				1.08057
				0.922391
				0.927759
				0.966926
				0.995987
				0.972518
				0.930043
				0.935484
				0.882995
				0.936535
				0.945766
				0.963748
				0.938426
				0.871228
				0.937969
				0.935411
				0.920425
				0.929808
				0.874598
				0.91739
				0.866498
				1.06238
				0.912646
				0.90263
				1.07398
				0.909762
				0.905624
				0.944101
				0.898426
				1.00133
				0.91908
				0.939969
				0.918049
				0.96246
				1.06161
				0.932106
				0.931511
				0.964647
				0.875996
				0.940297
				0.933199
				1.0481
				1.04148
				1.0727
				1.07313
				1.00163
				1.06431
				1.07055
				0.908981
				0.94977
				0.927661
				0.992987
				1.02383
				1.01833
				0.886084
				0.950331
				0.932584
				0.991062
				1.02448
				0.914688
				1.03317
				0.932276
				0.941457
				1.01413
				0.916307
				1.00722
				0.909831
				0.941269
				0.917367
				0.884757
				0.963319
				0.953202
				0.90703
				0.902701
				0.937171
				0.886582
				0.961645
				0.912278
				0.928831
				1.00383
				0.945074
				0.928546
				0.999558
				0.989214
				0.896418
				1.05107
				0.959258
				1.07642
				0.899867
				0.929215
				0.909649
				1.07351
				0.956641
				0.933231
				0.941229
				0.978263
				0.935631
				0.930659
				0.930173
				0.900365
				0.925461
				1.03561
				0.889418
				0.991966
				0.933445
				0.89053
				0.941084
				0.962235
				0.92232
				0.910243
				0.917558
				0.909039
				0.936621
				1.07301
				0.934411
				0.922657
				1.07321
				1.04749
				1.06111
				0.92799
				0.931108
				0.910813
				0.924037
				0.924043
				1.05544
				1.06552
				0.892799
				1.07201
				0.979393
				0.925175
				0.919727
				0.93237
				0.939208
				0.933292
				0.935482
				0.960598
				0.913033
				1.04063
				0.997422
				0.938551
				0.897418
				0.894484
				1.06768
				1.06057
				1.02657
				1.01637
				0.910784
				1.07001
				0.982797
				0.946555
				0.926825
				1.03268
				1.02476
				0.91296
				1.01148
				0.989233
				0.967478
				0.936495
				0.947982
				0.952532
				1.0149
				0.912529
				0.936236
				0.903865
				0.954347
				0.957022
				0.930905
				0.904853
				0.889765
				0.945163
				0.951292
				0.935642
				0.909777
				0.920551
				0.930561
				0.937681
				0.950847
				0.91346
				1.00728
				0.943296
				0.952647
				0.942235
				1.0001
				0.94079
				0.932111
				0.933972
				0.926328
				0.921009
				0.934957
				0.92187
				1.06821
				0.912
				0.925935
				1.06895
				0.904195
				0.968448
				0.956023
				0.929896
				0.993452
				0.911672
				0.917736
				0.922203
				1.04853
				0.895067
				0.934409
				0.927249
				0.930874
				1.03452
				0.929258
				0.941022
				0.928916
				0.938028
				1.04317
				1.05572
				1.06774
				1.07103
				1.06494
				0.896936
				0.940371
				0.922174
				0.952962
				1.05124
				0.917152
				0.93538
				1.06345
				0.932334
				0.943491
				1.06151
				1.06087
				0.917639
				0.917537
				0.970405
				0.907511
				0.951994
				0.986721
				0.916163
				1.05479
				1.01985
				1.03814
				0.958186
				1.02521
				0.928798
				0.946411
				0.91528
				0.951055
				0.996241
				0.944248
				0.957822
				1.03204
				1.00636
				0.916066
				0.912923
				0.950808
				0.992175
				0.909823
				0.93289
				1.02358
				0.916669
				1.01538
				0.936339
				0.932212
				0.95162
				0.919655
				0.944945
				1.06569
				0.931676
				0.930735
				0.924266
				0.937322
				0.930146
				0.944137
				0.917564
				0.926323
				0.930888
				1.00235
				0.916575
				0.92861
				0.923509
				0.920872
				0.946434
				0.928435
				1.00808
				0.974823
				0.913372
				0.928929
				0.942552
				0.928989
				1.0659
				1.04537
				0.943006
				0.93539
				1.06664
				0.954465
				0.954735
				0.924622
				0.915575
				1.03235
				0.929394
				0.9413
				0.939933
				0.923324
				0.918565
				0.939916
				0.938213
				0.93791
				0.941633
				0.947694
				1.06325
				1.06352
				1.06318
				0.917249
				0.920242
				0.948793
				1.04715
				0.979571
				1.0583
				1.05208
				1.05649
				0.948605
				1.04076
				1.06055
				0.938979
				0.916886
				0.939244
				0.954337
				0.956297
				0.913825
				0.92924
				0.954048
				1.01863
				0.953515
				1.05193
				1.03642
				1.02799
				0.91884
				0.936738
				0.949283
				0.920568
				0.994921
				0.992395
				0.946802
				0.974028
				0.943837
				0.94219
				0.924348
				0.931964
				1.01123
				0.936575
				0.94209
				0.926564
				1.02259
				1.01257
				0.929977
				1.05829
				0.930127
				0.936047
				0.923744
				0.917632
				0.938083
				0.932795
				0.922774
				0.924531
				0.940092
				0.942053
				1.00193
				0.928202
				0.933413
				0.925669
				0.946951
				0.941114
				1.05961
				0.932795
				0.943494
				0.96752
				1.05973
				1.02831
				0.951304
				0.948797
				1.0426
				0.926336
				0.936474
				0.938389
				0.94938
				0.92429
				0.926222
				1.05664
				1.03057
				0.957981
				0.941564
				0.946178
				1.05225
				0.924296
				0.937203
				0.953741
				0.925483
				1.01314
				0.94257
				1.0622
				1.06203
				0.958523
				0.950173
				0.97967
				1.0442
				1.04815
				0.925599
				1.03779
				0.949859
				0.93743
				1.05463
				0.929693
				1.05325
				0.94954
				0.938182
				0.929858
				0.955463
				0.934614
				0.941289
				0.959943
				0.94433
				0.937151
				1.02056
				0.936946
				1.04689
				0.934969
				0.939473
				0.93203
				0.939439
				0.931043
				0.926647
				1.03394
				0.933628
				0.999056
				0.980622
				0.991636
				1.00897
				0.933542
				0.947799
				1.02132
				0.940031
				0.94391
				0.950155
				0.929487
				1.0049
				1.05899
				0.939334
				1.05639
				0.954444
				1.02791
				0.928702
				0.954912
				0.968477
				0.950802
				0.93426
				0.940132
				0.948645
				1.05755
				0.939464
				1.03998
				0.94451
				0.925801
				1.0136
				0.953678
				1.05476
				1.02876
				0.946195
				1.05023
				0.946958
				0.927713
				0.949788
				0.950101
				0.940195
				0.98722
				0.931487
				0.949248
				0.942214
				1.05485
				0.942475
				0.94418
				1.01963
				0.936941
				0.936931
				0.939982
				0.964834
				1.04529
				0.934301
				1.0402
				0.94991
				1.03547
				0.961011
				1.05204
				1.04834
				0.94759
				0.941723
				1.04455
				0.945419
				1.03252
				0.943457
				1.00468
				0.950537
				0.997665
				0.956323
				0.935365
				1.01133
				0.979185
				0.995422
				1.0203
				0.939451
				1.05339
				0.951069
				0.944462
				0.961269
				0.940286
				1.05452
				1.05206
				1.02604
				0.955131
				0.977456
				0.939875
				1.05127
				0.937125
				0.947865
				0.962653
				0.954415
				0.948885
				1.04868
				0.938921
				1.04523
				1.01239
				1.03731
				0.957461
				0.942543
				0.953929
				0.949695
				0.951751
				0.949237
				0.947209
				0.951617
				1.02683
				0.949154
				0.947392
				0.94029
				0.953433
				0.987105
				0.970579
				1.02044
				0.946903
				0.967289
				1.04145
				0.949058
				0.943609
				1.05294
				0.940416
				1.03243
				0.944096
				0.952873
				1.03774
				1.04666
				1.04044
				0.958009
				1.04583
				0.940775
				1.00089
				1.02911
				1.05104
				1.01022
				1.00621
				0.983645
				0.941025
				0.994888
				0.959568
				0.942173
				1.01759
				0.964894
				0.944993
				0.946961
				0.95313
				0.956038
				0.95724
				1.05029
				0.940603
				0.956392
				1.04808
				0.978342
				0.957094
				1.04853
				1.04919
				0.942534
				0.960747
				0.951803
				0.943522
				0.954947
				1.04743
				1.04347
				0.944718
				1.0343
				0.947651
				0.959656
				0.954618
				0.942997
				0.948171
				1.02624
				0.961158
				0.943937
				0.952133
				1.02447
				0.991451
				1.01892
				0.952341
				1.01606
				0.955188
				0.97151
				0.972883
				0.964843
				0.945145
				1.04698
				0.955182
				0.947267
				0.959854
				1.03892
				1.00672
				1.04459
				1.0382
				1.03017
				0.95166
				1.03422
				1.00044
				1.04135
				1.04487
				0.966244
				1.01069
				0.984147
				0.95418
				0.947498
				0.950394
				0.9966
				0.965548
				0.964818
				1.04516
				0.98374
				0.949746
				0.961794
				0.951443
				0.960199
				0.953966
				1.04375
				1.04741
				0.953543
				0.966815
				1.04242
				0.955567
				1.04814
				1.0403
				0.949822
				0.95664
				0.960226
				1.03091
				0.964215
				0.951943
				0.943969
				0.955415
				1.02099
				0.945838
				0.991512
				0.952116
				0.958396
				0.958857
				0.977721
				1.02189
				0.96071
				0.956307
				0.96544
				0.975888
				0.965626
				1.01293
				0.951919
				0.954029
				1.00666
				1.03542
				1.00179
				1.03474
				1.0454
				0.964478
				1.03982
				1.01085
				1.02723
				0.986906
				1.03203
				0.972523
				0.953541
				1.03932
				0.961202
				0.99662
				0.967079
				1.04495
				0.947723
				0.954471
				1.04163
				0.959031
				0.984509
				0.952927
				0.949769
				0.956417
				0.958329
				0.961628
				1.02883
				1.02173
				0.961971
				0.960457
				0.971694
				1.04138
				1.04206
				0.968056
				1.0375
				0.955918
				1.04201
				0.969156
				0.954935
				1.01993
				0.961629
				0.9592
				0.96466
				0.993959
				0.961432
				0.970357
				0.978671
				0.95818
				0.948378
				0.949866
				0.979375
				0.970518
				0.962373
				0.96037
				1.01249
				0.96975
				0.961603
				1.00516
				0.952554
				1.03989
				1.0012
				1.04121
				1.01084
				0.967455
				0.963472
				1.03314
				0.95856
				1.03819
				1.03273
				0.962063
				0.973625
				1.02499
				0.988225
				1.04071
				0.963295
				0.965287
				0.970819
				1.03533
				1.02873
				0.99813
				0.987776
				1.02112
				0.964754
				1.01482
				0.962566
				0.948128
				0.959584
				1.03597
				1.02653
				0.97529
				1.03513
				0.955508
				0.960615
				0.969504
				1.03717
				1.03944
				0.971104
				1.04054
				1.0171
				0.966669
				0.982547
				0.960747
				0.994165
				0.97085
				0.973675
				0.962813
				0.948347
				0.982256
				0.964897
				0.9647
				0.969114
				0.949945
				0.966266
				0.966117
				1.00852
				0.960027
				0.964425
				1.03003
				1.00231
				0.978038
				0.964811
				0.965417
				1.0383
				0.957835
				1.0379
				0.965439
				0.963119
				0.9735
				1.0089
				1.03389
				1.03856
				0.990225
				1.02927
				1.02207
				0.99845
				1.01948
				0.988486
				1.03813
				1.03365
				0.96929
				1.02678
				0.974808
				0.978867
				1.01501
				0.974083
				1.03311
				0.965536
				0.968837
				0.955823
				1.02467
				1.0358
				0.950704
				1.00687
				0.971947
				0.965981
				1.01501
				0.973857
				1.03549
				1.03596
				0.995843
				0.983409
				0.965182
				0.970831
				0.952136
				0.966783
				0.972944
				0.976931
				0.984317
				0.969674
				0.967991
				0.965002
				0.967878
				0.970605
				1.03616
				0.970853
				0.970461
				0.967353
				0.968564
				1.00184
				0.979308
				0.975868
				1.02811
				1.00953
				1.03403
				0.991853
				1.00037
				1.03389
				0.959632
				1.03248
				0.99073
				1.03394
				1.03628
				1.02755
				1.02171
				0.970692
				1.01967
				0.980884
				0.97659
				1.01468
				1.02927
				0.975442
				1.02988
				1.02366
				0.972804
				1.01108
				0.967692
				1.03162
				0.961334
				0.974218
				0.969148
				0.975047
				0.959094
				0.955305
				0.985473
				0.996042
				0.972923
				0.978431
				0.973209
				1.03514
				1.03498
				0.953818
				0.986578
				0.972591
				0.969997
				1.03199
				0.97228
				0.971848
				0.969997
				0.984459
				0.973373
				0.9707
				0.969132
				1.00263
				0.972655
				0.979539
				1.00125
				1.01954
				0.972812
				1.00983
				1.02428
				0.993018
				1.00756
				0.990479
				0.97974
				1.03291
				1.03219
				1.02872
				1.01653
				1.03187
				0.977333
				0.982564
				0.974807
				1.0135
				1.02437
				0.965109
				1.02746
				0.980073
				1.02811
				0.978514
				0.97173
				1.02144
				0.961945
				1.03043
				0.977009
				0.996063
				0.976505
				1.03036
				0.972284
				0.973219
				0.978334
				0.975024
				0.973202
				0.957919
				0.985661
				0.954502
				0.986972
				0.977264
				0.974281
				1.03064
				1.03113
				0.98045
				0.958079
				1.0154
				1.00212
				0.978456
				0.971585
				1.00604
				0.974272
				1.00082
				0.973534
				1.00932
				0.993705
				0.993574
				1.0219
				1.03148
				1.02809
				1.029
				0.986225
				1.01405
				0.981406
				1.02736
				0.979098
				0.977542
				1.02427
				0.976491
				1.02262
				0.959797
				0.965577
				1.02503
				0.974156
				0.97961
				1.02696
				0.976914
				1.01919
				0.975902
				0.978155
				0.967434
				0.987275
				0.975299
				0.982132
				1.00811
				0.994526
				1.01449
				0.979495
				1.0292
				0.95808
				0.96375
				1.02984
				1.02713
				0.975891
				1.00237
				0.987387
				0.980711
				1.02126
				0.958381
				1.01363
				1.006
				0.976389
				0.994198
				0.999521
				0.974901
				0.983596
				0.97695
				1.02739
				0.980858
				1.02633
				1.02806
				0.979192
				1.02442
				0.982503
				1.02273
				0.980036
				0.978606
				0.979111
				0.978657
				0.960593
				1.02026
				1.02341
				0.978347
				0.970836
				1.02699
				1.02594
				0.968095
				1.01756
				0.98925
				0.979495
				1.01054
				0.984606
				1.02561
				0.978909
				0.995137
				1.01622
				1.02624
				1.00861
				1.00244
				0.962635
				0.959805
				0.988231
				1.01934
				0.983517
				0.979345
				0.963414
				1.02616
				0.981876
				1.0128
				0.976875
				0.994964
				1.00291
				0.986449
				1.02318
				0.983146
				0.978881
				1.02495
				0.982023
				1.02667
				0.985512
				1.02317
				1.00976
				1.02024
				0.981374
				0.978741
				0.982574
				0.981286
				0.959956
				1.01884
				0.971816
				1.02326
				0.990587
				0.980462
				1.02395
				0.985669
				0.973273
				1.02102
				1.00238
				1.01422
				0.966576
				1.01593
				1.00734
				1.02435
				0.981376
				0.996031
				1.02551
				1.0025
				0.990024
				0.987901
				0.985947
				0.964682
				0.98419
				1.01811
				0.983337
				1.02319
				0.981798
				1.01184
				0.985256
				0.995509
				1.02189
				0.982673
				1.01247
				0.979906
				1.02418
				0.98696
				1.00609
				0.981884
				0.984742
				1.02426
				0.982932
				1.01901
				1.02081
				1.02339
				0.984656
				0.966144
				0.965306
				0.992246
				1.00586
				0.982881
				1.0222
				1.01699
				0.975796
				0.987584
				0.973954
				1.01949
				1.02365
				0.999275
				0.968154
				1.02138
				0.983682
				1.01448
				0.983163
				0.9967
				1.02271
				1.01635
				0.990052
				0.990847
				0.986044
				1.00143
				1.0108
				0.987923
				0.985289
				0.982202
				0.970278
				0.994954
				1.01939
				1.01203
				0.986686
				1.00532
				1.02215
				1.02219
				0.988978
				0.98568
				0.98514
				0.983212
				1.00689
				1.02122
				1.01705
				1.02328
				0.984995
				1.01957
				0.993171
				0.988435
				0.999616
				0.96586
				1.02008
				0.966377
				0.985495
				1.01578
				0.977321
				0.978912
				0.987021
				1.02095
				1.01763
				0.990818
				0.97149
				0.99725
				1.02046
				1.02238
				1.01332
				1.00828
				0.988533
				0.992138
				1.00201
				1.01515
				0.986444
				1.00974
				0.97096
				0.996751
				0.989585
				0.986204
				1.01838
				1.00184
				1.02101
				0.991344
				1.01931
				0.987297
				0.987779
				1.00493
				1.02086
				1.01154
				0.986451
				1.00584
				0.987191
				0.984666
				1.02099
				1.01605
				1.01956
				0.994163
				0.966712
				1.01756
				0.989866
				0.986767
				0.969446
				1.01893
				0.988617
				0.979674
				1.01435
				0.980457
				1.00853
				0.997881
				1.01805
				1.01649
				1.0193
				0.988104
				0.99298
				0.972995
				0.99744
				1.01221
				0.99207
				1.00167
				0.988209
				0.989882
				1.00245
				1.02046
				1.01645
				1.01403
				0.98744
				1.00939
				1.01836
				0.97576
				0.991459
				1.01947
				1.00582
				0.972396
				0.988389
				0.994761
				0.990716
				1.0146
				1.01888
				1.01144
				1.0062
				0.986836
				0.989027
				1.01655
				1.01849
				0.988753
				0.989568
				1.01694
				0.971037
				0.97104
				1.01329
				0.983669
				0.981514
				1.00858
				0.99808
				1.00344
				1.01726
				0.993911
				1.01484
				0.997559
				0.990267
				0.989186
				1.00062
				1.00202
				1.00538
				1.01125
				0.976847
				0.994776
				1.01818
				1.01766
				1.01568
				1.01317
				0.98986
				0.989465
				0.974765
				1.01778
				1.00874
				0.992613
				0.989285
				0.991912
				1.0166
				1.01692
				0.972908
				1.01364
				0.989951
				0.988119
				1.01036
				1.00577
				0.989596
				1.0148
				0.990929
				1.01607
				0.971054
				0.998336
				0.984717
				0.995338
				1.01219
				0.994427
				0.99232
				1.01535
				1.00746
				0.984257
				1.003
				0.991533
				1.01384
				0.978339
				0.991733
				0.990626
				1.00176
				1.00574
				0.997814
				1.01607
				1.01025
				0.976728
				1.01448
				1.00171
				0.992632
				1.01629
				0.974768
				0.990792
				1.01675
				1.01179
				1.00795
				0.990735
				1.01576
				1.01261
				0.994743
				1.01574
				1.01592
				0.991284
				1.00962
				0.991126
				1.00533
				0.989426
				1.01392
				0.991733
				1.01429
				0.998232
				0.987141
				0.99519
				1.01115
				0.976364
				0.979857
				1.01492
				1.00556
				0.984998
				0.993721
				0.993166
				0.991321
				1.00151
				1.00204
				0.998134
				0.980428
				1.01245
				0.975556
				0.992615
				1.01341
				1.0094
				1.01502
				0.993636
				1.01522
				0.991394
				1.00849
				0.995958
				1.00458
				0.992079
				1.01414
				1.01081
				1.00711
				1.01482
				0.991986
				1.01155
				1.01504
				1.01459
				0.9989
				0.991588
				0.990642
				0.992815
				1.01247
				0.995659
				1.01353
				0.988518
				1.0129
				1.01022
				1.00508
				0.99486
				0.994211
				0.977142
				0.981293
				0.978305
				0.992256
				0.993806
				1.00245
				0.986706
				1.0012
				1.01157
				0.998387
				0.983239
				1.01298
				1.01395
				0.994267
				1.00854
				1.01352
				0.992597
				0.993182
				1.01337
				0.999639
				0.996396
				1.0076
				1.00387
				0.998419
				1.01391
				1.00982
				1.0106
				1.00653
				0.992697
				0.992989
				1.01409
				1.01337
				0.993401
				0.996245
				0.991557
				1.01172
				1.01208
				0.98012
				0.994525
				0.99023
				1.00939
				1.0047
				0.978274
				0.996015
				0.99354
				1.01175
				0.998493
				0.980575
				1.00104
				0.988658
				1.00218
				0.994447
				1.01272
				1.01047
				0.984365
				0.993152
				0.994938
				1.00785
				1.01285
				0.994021
				1.01198
				1.00366
				1.00037
				1.00712
				1.01245
				0.997533
				0.993773
				0.993647
				0.999129
				1.00905
				1.00982
				1.00586
				0.9966
				1.01249
				1.01272
				0.992852
				0.986335
				1.01055
				0.994337
				0.995586
				1.01145
				0.981885
				0.991294
				0.995421
				0.980877
				1.0045
				1.0086
				0.996763
				1.01075
				0.995335
				0.998662
				1.00195
				1.001
				1.01184
				0.98135
				0.990262
				1.00977
				0.995483
				0.987015
				1.00717
				0.994347
				1.01143
				0.994923
				0.999321
				1.01146
				1.01132
				1.00322
				1.00656
				1.00895
				1.00832
				0.99477
				1.00545
				0.997008
				1.0119
				1.01132
				0.994711
				0.996433
				0.983711
				0.993585
				0.986368
				1.00993
				1.00186
				1.01025
				0.996439
				0.992601
				1.00794
				0.981595
				0.998866
				0.997621
				1.00438
				0.999264
				0.995929
				1.00991
				1.01076
				1.00085
				0.984436
				0.991541
				0.99602
				1.00888
				0.988083
				0.994705
				1.00664
				1.003
				1.01089
				1.01019
				0.99558
				1.01049
				0.99515
				1.00615
				1.00836
				1.00774
				0.997447
				1.00243
				1.0049
				1.01078
				1.01059
				0.984393
				0.988213
				0.994676
				1.00066
				0.996949
				0.995728
				1.00972
				1.00896
				0.997631
				0.993498
				0.999024
				1.00419
				1.00733
				0.983991
				0.99672
				1.00889
				0.999075
				1.01008
				1.00085
				0.985338
				0.99662
				1.00831
				0.99284
				0.990016
				0.995869
				1.00605
				1.00972
				1.00947
				0.996325
				1.00267
				1.00965
				1.00766
				1.00579
				1.00273
				1.00124
				0.996116
				1.0071
				0.997819
				0.984094
				1.00461
				0.997074
				0.990271
				0.996215
				1.00965
				1.01011
				1.00874
				0.995168
				1.00845
				0.999266
				0.994508
				0.996989
				1.00676
				0.998207
				1.00394
				1.00917
				1.00848
				0.984207
				0.999607
				1.00082
				0.99621
				0.992821
				0.997204
				0.987448
				0.991046
				1.00757
				1.00244
				1.00214
				1.00877
				1.00895
				1.00569
				1.00928
				0.996706
				1.00715
				0.996401
				1.00527
				1.00068
				0.985733
				0.989796
				1.00662
				0.998221
				1.00405
				1.00353
				0.997827
				1.00919
				0.99941
				1.00904
				0.995973
				0.996966
				1.0083
				1.00765
				0.99517
				0.997616
				0.99865
				1.00633
				1.00773
				1.00867
				1.00084
				0.993734
				0.999798
				0.987249
				1.00202
				0.997618
				0.996991
				1.00706
				0.988808
				0.992655
				1.00234
				1.00825
				1.00832
				1.00516
				0.98698
				0.997306
				1.00827
				1.00663
				1.00114
				0.988687
				1.00484
				0.997114
				1.00401
				0.998571
				1.00604
				0.998152
				1.00301
				0.999645
				0.997314
				1.0075
				1.00828
				0.996295
				1.00865
				1.00771
				1.00721
				0.997881
				0.995691
				1.00583
				1.00801
				1.00074
				1.00711
				0.994942
				0.999041
				0.997284
				1.00221
				0.987483
				1.00003
				1.00131
				0.998089
				0.992043
				1.00647
				0.988356
				1.00428
				1.00754
				1.00796
				1.00497
				1.00617
				0.991365
				0.997672
				0.997358
				1.00775
				1.00279
				0.998899
				1.00548
				1.00373
				0.998592
				0.99982
				0.991812
				0.99786
				1.00789
				0.997081
				1.00777
				1.00713
				0.998278
				1.00659
				0.996512
				1.00084
				1.0067
				1.0055
				1.00677
				1.00746
				0.999293
				1.00265
				1.00165
				0.997826
				0.995417
				0.988224
				0.998414
				1.00019
				0.989348
				1.00122
				1.00393
				1.00604
				1.00717
				1.0046
				1.00714
				0.998183
				1.00577
				1.00723
				0.992404
				0.998822
				1.00227
				0.997931
				1.00517
				0.99919
				0.994903
				1.00375
				0.992989
				0.998129
				1.00004
				1.00649
				0.998813
				1.00714
				0.997298
				1.00744
				1.00625
				1.00087
				1.00512
				0.997164
				1.00637
				1.00685
				1.00189
				1.00372
				0.999516
				0.998085
				1.00271
				0.989857
				0.991782
				0.996192
				0.998775
				1.00029
				1.00671
				0.989979
				1.00563
				1.00116
				1.00654
				1.00542
				1.00687
				1.00444
				0.998511
				1.00232
				0.998124
				1.00491
				0.993887
				0.999452
				0.995916
				0.999156
				1.00352
				1.00018
				0.998445
				0.994618
				1.00681
				0.997879
				1.00104
				1.00619
				1.00672
				1.00585
				1.00574
				0.997254
				1.00486
				1.00647
				1.00307
				0.999717
				1.00399
				1.00182
				0.990432
				1.00271
				0.998512
				0.991353
				0.998982
				1.00622
				0.996691
				1.00535
				1.00039
				0.991629
				1.00623
				1.00619
				1.00412
				1.00127
				1.00508
				0.998914
				1.00201
				0.998595
				0.999623
				0.994557
				0.999248
				1.00466
				0.99898
				0.994621
				1.00345
				1.00035
				1.00108
				1.00586
				1.00308
				1.00565
				0.997813
				1.0062
				0.998093
				1.00645
				1.00546
				1.00453
				1.00603
				1.00541
				1.00186
				0.999888
				0.998764
				1.00378
				0.992714
				1.00259
				0.991603
				0.997247
				1.00059
				1.0057
				1.00496
				1.00476
				0.992379
				0.999234
				1.00585
				1.00597
				1.00397
				1.00204
				1.00123
				0.999076
				0.998774
				0.999862
				0.995526
				1.00443
				0.999658
				1.00257
				1.00323
				1.00047
				0.995617
				1.00115
				1.00348
				1.00593
				0.998006
				0.998563
				1.00541
				1.00586
				1.00516
				1.00519
				1.00431
				1.00182
				1.00504
				1.00565
				1.00011
				1.00257
				0.99344
				0.999166
				0.991857
				0.997663
				1.00059
				1.00469
				1.00542
				0.999433
				1.00551
				1.00186
				1.00545
				1.00371
				1.00451
				0.999406
				0.995059
				1.00125
				1.00412
				0.999144
				0.999909
				1.0026
				0.999803
				0.995413
				1.00113
				1.00049
				1.00316
				1.00338
				0.993846
				1.00498
				0.998264
				1.00543