<VTKFile type="UnstructuredGrid" version="0.1" byte_order="LittleEndian">
<UnstructuredGrid>
	<Piece NumberOfPoints="1485" NumberOfCells="2857">
		<CellData Scalars="density" Vectors="velocity">
			<DataArray type="Float64" Name="density" Format="ascii">
				1.40274
				1.36959
				1.36439
				1.25746
				1.31171
				1.32557
				1.35369
				1.21707
				1.18638
				1.13151
				1.10908
				1.21453
				1.31567
				1.31877
				1.32299
				1.02642
				1.32353
				1.25655
				1.16563
				1.22608
				1.11448
				1.02601
				1.28482
				1.27289
				1.30004
				1.05048
				1.30077
				1.13746
				1.06774
				1.18299
				1.23616
				0.960382
				1.12633
				1.19268
				1.04984
				0.98768
				0.954473
				1.04191
				1.28941
				1.11691
				1.26287
				1.26525
				0.899369
				1.27394
				0.994116
				1.06816
				1.27385
				1.16696
				0.945981
				0.902655
				1.15593
				1.22135
				0.985535
				0.983751
				1.1977
				1.0758
				1.05362
				0.862173
				1.13223
				1.26555
				0.936962
				1.01003
				0.912161
				0.864714
				1.25452
				1.2294
				1.23569
				0.830418
				0.944373
				0.832886
				1.25336
				0.86454
				0.911485
				1.13489
				0.885102
				1.21062
				1.01152
				0.805126
				1.07373
				0.893677
				1.05596
				0.930323
				1.17081
				0.965735
				1.00062
				1.24998
				1.11278
				0.785805
				1.25117
				0.84739
				0.808632
				1.22056
				0.885078
				1.22479
				1.23194
				1.14759
				0.857557
				0.769285
				0.929703
				1.19629
				1.22908
				0.998938
				1.17301
				1.2329
				1.05899
				0.831029
				0.788689
				0.888357
				1.077
				0.956499
				0.958404
				0.865462
				1.02067
				1.12424
				1.23042
				1.11046
				0.75524
				0.829504
				0.814139
				0.901631
				1.19568
				1.16105
				0.772176
				1.21606
				1.20771
				0.848024
				1.12004
				0.740319
				0.854762
				0.924285
				1.19137
				1.02208
				1.1517
				0.799318
				1.22117
				1.21534
				1.07481
				0.807561
				0.911255
				1.21423
				0.880571
				0.946723
				0.976926
				0.756668
				1.06348
				1.08493
				1.00994
				0.72847
				0.830533
				1.10671
				1.21621
				0.787012
				1.18799
				0.827679
				1.11183
				0.898479
				1.14674
				0.742523
				0.717096
				0.789246
				1.13289
				0.861617
				1.19388
				0.813868
				1.19782
				0.771646
				1.15246
				0.873041
				0.940945
				1.1733
				1.0082
				0.704107
				1.06862
				1.13905
				1.15957
				1.15685
				1.20216
				1.05987
				0.730295
				0.807165
				0.902638
				0.772498
				0.763029
				0.878247
				0.96956
				0.969495
				1.19822
				0.800206
				0.843144
				1.07685
				1.02643
				1.19661
				1.19858
				0.69447
				1.11522
				1.12312
				0.717503
				0.750761
				1.07952
				1.10353
				0.845779
				1.09542
				0.915155
				1.16887
				0.785475
				0.682971
				0.757567
				0.787993
				1.11779
				1.0956
				0.825943
				0.858824
				0.743218
				1.18402
				0.705651
				1.19132
				1.17485
				1.16262
				0.674829
				1.13423
				0.871265
				0.935293
				0.77309
				1.02565
				1.09969
				1.06729
				0.734378
				0.743741
				0.822222
				1.07208
				1.10809
				0.665243
				1.19283
				0.924454
				0.893876
				0.810521
				0.772498
				0.694618
				0.958078
				0.983945
				1.18373
				0.840237
				0.728464
				1.01532
				0.762285
				1.18591
				0.65812
				1.05867
				1.06522
				1.18321
				1.0988
				0.73002
				1.07587
				0.684351
				0.7209
				1.09826
				1.1621
				0.83825
				0.795445
				0.650348
				0.912784
				1.09019
				0.751857
				1.12299
				0.757214
				0.803252
				0.715977
				0.872548
				0.82431
				0.644385
				1.07383
				1.17566
				0.675072
				0.717943
				1.08619
				0.710106
				0.743379
				0.880462
				0.782661
				1.17068
				0.638273
				1.15114
				1.16543
				1.1401
				0.952365
				1.08625
				0.666381
				0.70665
				1.01166
				1.01577
				0.742311
				0.633985
				0.820507
				1.17651
				1.05833
				0.705531
				0.735659
				0.785886
				0.701843
				0.80702
				0.891135
				0.911797
				0.629605
				1.17073
				0.976871
				0.978076
				1.06166
				0.854003
				0.770813
				1.09996
				0.658553
				0.698651
				1.11669
				1.02887
				1.05158
				0.626826
				1.10132
				0.728598
				1.17024
				0.694581
				0.695275
				1.07058
				0.623711
				1.09501
				0.730332
				0.651381
				1.1295
				0.689773
				0.868579
				1.14928
				0.620986
				0.760544
				1.16879
				1.10534
				0.722057
				0.795192
				0.929087
				0.682242
				0.770057
				0.617719
				1.07884
				0.645048
				0.799212
				1.09146
				1.165
				0.884066
				0.6149
				0.684593
				0.836582
				1.05853
				1.03525
				0.869076
				0.716378
				0.612026
				1.09861
				0.997996
				0.7163
				0.751021
				0.607838
				0.639562
				1.13005
				1.00603
				0.602569
				1.16889
				1.00734
				1.07474
				0.599937
				1.15644
				1.01312
				0.711455
				0.599145
				0.780025
				1.02
				0.600462
				0.675924
				0.946417
				1.03948
				0.634967
				0.753468
				1.12161
				1.14404
				1.02884
				1.15413
				0.743053
				0.707125
				1.02581
				0.834224
				0.608461
				0.631163
				0.705992
				0.817375
				0.784478
				1.06735
				0.905769
				0.666977
				0.928767
				0.861163
				0.702916
				1.16738
				1.08148
				0.983671
				1.05938
				1.15968
				0.627987
				0.770815
				0.963916
				0.852929
				0.735128
				1.0835
				0.699172
				1.01637
				1.09431
				0.624893
				1.07643
				0.659712
				0.741194
				0.694843
				0.693941
				0.621732
				0.728578
				1.15711
				1.13582
				0.694401
				0.805699
				0.759063
				1.05708
				0.618564
				1.11795
				0.652522
				0.924312
				0.690891
				0.765669
				0.615559
				0.82728
				1.08893
				0.72212
				1.06966
				1.0462
				1.09176
				1.15126
				0.611929
				1.15713
				0.685003
				1.10112
				0.987528
				0.88362
				0.831244
				0.646924
				1.07864
				0.607245
				0.726366
				1.05849
				1.01144
				0.60323
				0.751264
				1.04059
				1.00515
				0.717065
				0.600954
				1.0122
				0.598427
				1.01744
				1.10682
				0.789073
				0.585596
				1.15382
				0.894824
				1.02545
				0.641461
				1.03526
				0.969956
				0.675097
				1.08394
				0.711881
				1.06121
				1.14676
				1.08945
				0.637491
				0.75237
				0.741887
				0.715578
				0.70769
				1.12593
				1.01194
				1.13336
				1.14262
				0.798202
				1.14683
				1.1527
				0.63338
				0.817573
				0.66738
				0.904453
				0.917598
				0.882916
				0.779794
				1.09821
				0.70315
				0.864931
				1.05324
				0.629991
				0.979664
				1.06829
				0.699293
				1.02442
				1.06186
				0.820196
				0.6263
				0.702791
				0.659394
				0.735533
				0.696543
				0.737812
				0.623112
				0.72786
				1.08735
				0.767228
				0.695444
				0.619548
				0.800055
				0.967074
				1.06887
				0.653292
				0.945578
				0.791159
				0.615394
				1.06523
				0.99169
				1.14583
				0.611
				0.693301
				0.722787
				1.14517
				1.01437
				0.608166
				1.02987
				0.845224
				1.00802
				0.605366
				0.647034
				1.01565
				0.60253
				1.09506
				0.758986
				0.877116
				1.08174
				1.02054
				0.725397
				1.04921
				0.91064
				0.57207
				1.02864
				1.03814
				1.06759
				1.14178
				1.09457
				0.716534
				1.146
				1.11623
				1.09379
				0.642553
				0.682838
				0.788646
				1.04864
				0.71246
				1.13436
				1.12198
				0.748666
				1.14657
				0.765392
				0.637804
				1.06848
				0.707318
				0.712941
				0.674621
				1.07044
				0.824771
				0.63407
				1.02345
				0.912537
				0.702886
				0.742093
				0.776516
				1.14426
				1.1359
				0.939752
				0.878515
				0.630146
				1.13039
				0.861201
				0.700762
				0.666283
				0.969049
				1.06036
				0.626852
				0.843374
				0.784135
				0.759709
				0.701846
				1.08653
				0.674906
				1.0138
				0.733861
				1.06684
				0.623185
				1.05043
				0.905933
				0.659727
				0.618903
				0.766826
				0.819709
				1.03683
				1.08635
				0.614752
				0.728475
				1.08317
				1.07962
				1.00269
				0.612196
				0.984436
				1.08218
				1.0825
				1.0218
				0.938488
				1.01142
				0.691506
				0.65312
				0.609084
				1.0125
				1.1009
				0.606389
				1.13972
				1.01926
				0.606381
				1.13391
				1.02449
				0.834899
				0.737665
				0.721552
				0.902389
				1.04474
				1.03445
				0.628523
				1.05107
				0.75632
				0.648103
				0.79757
				0.717131
				1.0823
				0.68204
				1.07104
				0.642789
				1.07731
				1.11141
				1.09255
				1.13495
				1.13488
				1.1359
				0.748393
				0.711514
				1.05408
				0.732436
				1.12195
				0.638365
				1.06313
				1.12121
				0.673632
				0.707056
				1.10884
				1.13241
				0.634099
				0.793653
				0.753606
				0.740368
				0.704595
				0.871781
				0.630452
				1.12581
				0.904065
				1.00858
				0.692167
				0.930187
				0.666004
				0.813694
				0.626554
				0.713291
				0.806534
				1.07709
				0.868844
				0.976161
				0.837777
				0.621544
				0.733873
				1.04278
				0.894788
				0.775382
				1.08679
				1.04639
				0.617861
				1.0187
				1.05497
				0.659327
				1.00196
				0.616188
				1.01407
				1.12927
				0.613528
				1.01416
				0.727097
				1.1408
				0.609935
				0.708788
				1.02036
				1.07492
				0.613191
				0.954882
				1.02644
				0.585444
				1.03503
				1.04383
				1.03954
				0.653272
				0.977412
				0.857662
				0.771587
				0.721523
				1.0736
				0.647894
				1.13231
				1.05601
				0.692514
				0.716173
				1.12473
				0.727272
				1.07335
				0.642611
				0.756443
				1.08347
				1.05706
				1.06599
				0.710715
				0.788715
				0.638179
				0.689008
				1.0717
				1.05755
				1.07931
				0.708574
				1.12998
				1.12206
				1.12011
				0.634024
				0.7536
				1.08586
				1.11519
				0.774073
				1.12489
				1.07822
				1.10403
				0.693147
				1.09914
				1.11067
				1.06437
				0.630231
				0.675621
				0.73572
				0.832002
				0.625227
				0.741302
				1.07759
				0.897263
				0.993348
				1.11668
				1.01498
				0.958426
				0.621209
				0.67286
				0.994815
				0.619123
				0.914119
				0.801581
				0.70454
				0.853935
				1.01666
				1.07262
				0.617028
				0.738663
				0.863914
				1.01562
				1.07436
				0.612942
				1.0495
				1.00247
				1.0155
				1.1145
				0.608191
				0.944778
				1.02173
				0.767744
				0.661849
				0.586678
				1.03164
				1.03896
				1.06023
				0.728081
				0.945804
				1.06388
				0.659328
				1.05002
				1.06656
				0.725881
				1.11732
				0.649618
				1.06719
				0.745788
				1.11318
				0.954254
				0.717364
				1.07119
				1.04159
				0.647518
				0.805036
				1.07658
				0.716132
				0.750746
				0.639682
				1.11574
				1.06996
				0.717957
				0.685956
				1.06217
				1.11313
				0.637626
				1.04771
				0.73858
				0.629608
				0.99715
				1.06661
				1.11456
				1.11671
				1.01796
				1.08227
				0.769898
				1.10329
				1.07805
				0.628435
				1.09583
				1.03558
				0.670637
				1.10228
				0.624808
				1.09093
				1.00579
				1.05701
				0.623837
				0.828244
				0.736215
				1.00233
				0.721447
				1.085
				0.619872
				0.926532
				1.01913
				1.10753
				0.612667
				0.854532
				1.02262
				0.63477
				1.04135
				1.03326
				1.0027
				0.781951
				0.825724
				0.876466
				0.907652
				0.856197
				0.656956
				1.06302
				1.03745
				1.05265
				0.723783
				1.06122
				1.04388
				0.971159
				1.1129
				1.07404
				1.1064
				0.701238
				0.973354
				0.645443
				1.07253
				0.742641
				0.720368
				1.06662
				0.763138
				1.0623
				1.10459
				1.05119
				1.04604
				0.801455
				0.634715
				1.01424
				0.837595
				1.10946
				1.07087
				1.05771
				1.10593
				1.06829
				0.629116
				0.68417
				1.0523
				1.05085
				0.791683
				0.622667
				0.747012
				1.06126
				1.10311
				0.999983
				1.01187
				0.920525
				0.621442
				1.02697
				0.641167
				0.847176
				1.06531
				1.03013
				1.09717
				1.06442
				1.08428
				0.719649
				1.09254
				1.08661
				1.02977
				1.06237
				1.09919
				0.668709
				1.01055
				0.779783
				0.962973
				1.06856
				0.819076
				0.733632
				1.04869
				0.884317
				0.87121
				0.930775
				1.04332
				0.655239
				1.10548
				1.07286
				1.05299
				0.718275
				1.04115
				1.09976
				1.09868
				0.969268
				0.700301
				0.762466
				1.05601
				1.09566
				0.643126
				0.761389
				0.837758
				0.818782
				1.05735
				1.10067
				0.636543
				1.09728
				1.00584
				1.0337
				1.039
				0.629979
				1.04724
				1.00375
				1.06305
				0.682798
				0.591201
				1.04308
				1.06016
				0.873475
				1.06883
				1.03946
				0.745419
				0.786321
				0.737877
				0.947721
				1.05818
				0.841615
				1.06485
				1.05392
				1.02635
				1.09538
				1.03444
				1.08089
				0.66726
				0.794972
				1.0876
				1.08585
				1.09162
				0.735512
				1.07617
				1.04616
				0.84382
				0.994121
				1.09819
				0.875521
				0.983498
				0.891616
				0.652838
				0.921752
				0.718088
				1.04036
				1.02757
				0.716643
				1.05006
				1.06198
				1.03963
				1.04252
				1.05279
				1.0979
				0.644311
				0.774584
				1.08843
				0.758983
				1.00111
				1.09052
				1.0879
				0.636219
				0.814436
				1.00475
				1.05996
				1.0594
				1.09562
				1.09094
				0.627332
				1.03602
				1.01733
				0.697142
				1.0536
				1.04292
				0.709875
				0.993246
				0.757638
				1.04738
				1.03667
				1.05829
				0.808818
				0.941775
				1.07575
				1.02679
				0.679577
				0.735578
				0.860419
				0.74578
				1.02794
				1.08564
				1.05519
				1.05109
				0.791546
				1.05349
				0.976259
				1.07747
				1.08382
				1.07069
				0.663687
				1.08167
				0.836279
				1.07226
				1.08548
				0.735288
				0.905075
				0.884484
				1.04575
				1.04455
				0.6544
				0.943469
				0.71408
				0.996838
				1.08643
				0.779862
				1.03907
				0.771496
				0.644298
				1.00536
				1.0347
				1.0798
				1.08608
				0.636088
				0.832054
				1.08562
				0.715284
				1.08511
				1.08563
				1.05081
				1.01701
				0.694594
				1.0204
				0.757808
				1.03005
				1.03733
				1.04763
				0.97043
				1.04351
				0.803894
				1.06276
				1.03896
				1.04558
				0.754485
				1.04564
				1.08781
				0.676404
				0.740929
				0.854992
				0.806885
				1.01269
				1.0478
				0.664463
				0.989234
				1.05244
				0.862247
				1.07783
				1.07912
				0.839743
				1.07158
				0.899
				1.06675
				0.904269
				1.0736
				0.730675
				0.65285
				1.06298
				1.04254
				0.934378
				0.785712
				1.0837
				1.04187
				0.643004
				1.07446
				0.99741
				0.77656
				1.03549
				1.03466
				0.630267
				0.963269
				1.04513
				1.02202
				0.973024
				1.05102
				1.04531
				0.827409
				1.08122
				1.07276
				0.709572
				1.07789
				1.02447
				1.0746
				0.770962
				1.05125
				1.04362
				1.05652
				1.05535
				0.690244
				0.827056
				1.04469
				0.757944
				0.750885
				1.03456
				1.03238
				1.04166
				0.874016
				0.802553
				0.677876
				1.05455
				1.01551
				0.84402
				0.663533
				0.977801
				1.04313
				1.07092
				0.854998
				1.07045
				0.916506
				1.04483
				1.04586
				1.04077
				1.03485
				1.06421
				1.07163
				0.652907
				0.727656
				1.05719
				0.897104
				1.07606
				0.630843
				0.999783
				0.785321
				1.05957
				1.06833
				0.953763
				0.797585
				0.990088
				0.959531
				0.951047
				1.02313
				1.02956
				1.04881
				1.07273
				1.01186
				0.844699
				1.07244
				1.03332
				1.05672
				0.706104
				1.06598
				1.0696
				0.770859
				1.06842
				1.03208
				0.691373
				0.76859
				1.04244
				0.822808
				0.765314
				0.817317
				1.04131
				1.02774
				0.869397
				0.675695
				1.03575
				0.990764
				1.03116
				1.0418
				1.05169
				1.00004
				1.04941
				0.663416
				1.04054
				0.876918
				0.743344
				0.656997
				1.0071
				1.07002
				1.03955
				1.06533
				0.699361
				1.02687
				0.800469
				0.907808
				1.05922
				1.06508
				0.916997
				1.06531
				1.05341
				0.945794
				0.983336
				0.791965
				1.07158
				1.05147
				1.04281
				1.06139
				0.720574
				0.837718
				0.965312
				0.782419
				1.06744
				1.09592
				1.04916
				1.02662
				1.01554
				1.05995
				1.02979
				0.992278
				0.705061
				1.03839
				1.02987
				0.788797
				1.06258
				1.06207
				0.843265
				0.763625
				1.03873
				0.686921
				1.02533
				1.04583
				0.977421
				0.815162
				0.886086
				0.673845
				1.02565
				1.03304
				1.03763
				0.658685
				1.0607
				1.00346
				0.683925
				1.04629
				1.02872
				0.869308
				0.737551
				0.798926
				1.03195
				0.927223
				1.05859
				0.909171
				0.967643
				1.0621
				1.03542
				1.05269
				0.812616
				1.06407
				1.05979
				1.05974
				1.00246
				1.03915
				1.04434
				0.855877
				0.719521
				0.955702
				1.05952
				0.771033
				1.0488
				1.05661
				1.09018
				1.01423
				1.04414
				1.05433
				1.02825
				0.700678
				1.0417
				0.885767
				1.03084
				1.02586
				0.775915
				0.837849
				0.684812
				0.827156
				0.99592
				1.06072
				1.05721
				1.02089
				0.880554
				0.672826
				1.03023
				1.05359
				0.613869
				1.0128
				1.04133
				0.766619
				0.97161
				1.02672
				1.0337
				0.892542
				1.03592
				0.824486
				0.960742
				0.999475
				1.03089
				1.0123
				1.02892
				0.9306
				0.916421
				0.793546
				0.736232
				1.05356
				1.05982
				1.04832
				1.03951
				1.05372
				0.808835
				0.841747
				1.03586
				0.960527
				1.05412
				1.03243
				1.05438
				0.726793
				1.04076
				0.858123
				1.03733
				1.0489
				1.02497
				1.04867
				0.699285
				0.851267
				0.994871
				1.05217
				1.03611
				1.02879
				0.695156
				1.00954
				1.0265
				1.02619
				0.758306
				1.01955
				0.889382
				0.64647
				1.04023
				1.05045
				1.05071
				0.821878
				1.02095
				0.981445
				0.878883
				0.816382
				1.0231
				0.994215
				1.03744
				0.973744
				1.03088
				0.943069
				0.825933
				0.918534
				1.01808
				1.04983
				1.05178
				1.04777
				0.868457
				1.02821
				0.71884
				1.04162
				0.905865
				1.02009
				1.04856
				1.03167
				1.04772
				1.02124
				1.02803
				1.03816
				1.02823
				0.682585
				1.04413
				1.01505
				1.04507
				1.03128
				1.01383
				1.02171
				0.785929
				1.03617
				0.843973
				0.936284
				0.820443
				0.983488
				0.89645
				1.04937
				1.01426
				1.02733
				1.04643
				1.04358
				1.03516
				0.902908
				0.865425
				1.04605
				1.01732
				1.01409
				1.02688
				0.999165
				1.01729
				0.933662
				0.961544
				1.02759
				0.744076
				1.02018
				1.04294
				0.899929
				1.04711
				1.04326
				1.02916
				1.0389
				0.702339
				1.04408
				1.01311
				1.02363
				1.01138
				1.01323
				1.02173
				1.04405
				1.03191
				1.03128
				1.02675
				1.04076
				1.03939
				1.02093
				1.03896
				0.77828
				1.03102
				0.963414
				0.865386
				1.04312
				1.01594
				0.850514
				1.00015
				1.04085
				1.012
				0.894103
				1.0224
				1.01557
				0.890115
				1.02178
				0.849612
				1.03241
				1.01476
				1.04045
				1.04839
				1.03021
				1.01608
				0.924731
				0.982703
				0.740185
				1.04167
				0.965869
				1.02574
				1.03833
				1.01108
				1.03927
				0.689541
				1.03328
				0.965602
				1.03941
				1.02741
				1.0191
				1.01227
				1.02056
				1.01136
				1.0389
				1.02383
				1.03548
				0.803872
				1.02951
				1.03609
				0.881712
				1.01531
				1.03087
				0.981602
				0.999875
				1.02261
				1.03728
				1.01067
				1.03979
				1.02805
				0.839426
				1.03706
				0.911772
				0.889812
				0.76171
				0.995757
				1.01194
				0.961212
				1.01475
				1.0097
				1.03573
				1.01629
				1.02344
				1.0448
				0.939438
				1.03816
				1.01233
				0.987972
				1.02335
				1.03463
				0.701866
				0.943024
				1.02619
				1.02408
				1.03596
				1.01721
				1.03556
				1.03066
				1.0338
				1.01206
				1.01258
				1.01221
				0.794334
				0.999881
				1.02626
				1.03113
				1.03565
				1.02188
				0.91869
				1.01173
				1.02323
				1.0336
				0.963715
				1.01754
				1.03487
				1.02606
				1.03016
				1.01639
				0.861466
				1.0335
				1.0155
				0.755506
				0.909296
				0.993227
				0.897828
				1.02371
				0.98081
				1.01089
				1.01079
				1.00908
				0.928386
				1.03382
				0.987732
				1.02186
				0.999387
				1.03304
				1.03227
				0.654175
				1.01403
				1.02112
				1.02098
				0.953964
				1.02997
				1.03199
				1.03265
				1.0219
				1.02599
				0.815363
				0.92403
				0.966571
				1.00697
				1.02853
				1.00807
				1.02341
				1.03155
				1.01865
				1.01092
				0.991427
				1.02956
				1.02324
				0.778467
				1.01565
				0.847788
				1.03226
				1.03091
				1.02963
				0.970281
				1.01402
				0.916039
				0.915401
				1.00977
				1.00806
				1.01882
				1.00619
				0.950401
				1.07116
				1.01413
				1.03098
				0.983001
				1.02821
				0.725607
				1.02825
				1.02169
				1.01894
				0.938757
				1.02834
				0.995826
				1.01725
				1.00733
				1.01969
				1.01793
				1.02945
				1.02893
				1.02705
				0.802228
				1.00433
				1.02396
				0.960563
				1.02022
				1.00544
				1.02483
				1.00176
				1.00453
				1.02898
				1.01687
				0.970012
				0.868833
				1.02792
				1.01827
				1.02629
				1.01855
				0.931965
				1.01411
				0.947136
				1.02518
				0.757149
				0.90194
				1.01142
				1.00298
				0.986276
				1.02703
				1.02715
				1.01264
				1.01052
				1.02084
				1.02441
				1.00594
				1.01067
				1.02644
				0.955337
				1.00718
				1.01784
				0.824349
				0.9613
				1.0258
				1.02645
				0.993081
				1.00581
				1.01593
				1.01653
				1.02006
				1.02406
				1.01863
				1.0006
				1.02206
				1.00215
				1.00179
				1.02553
				1.00969
				1.01466
				0.980957
				0.852856
				0.995713
				1.02567
				0.945717
				1.01765
				0.959869
				0.991378
				1.00888
				0.975853
				0.922624
				0.946451
				1.02405
				1.01455
				0.779143
				1.0229
				1.02248
				1.02485
				1.00694
				1.01435
				1.00807
				1.00054
				1.02179
				1.01599
				1.00784
				1.015
				0.984898
				1.02149
				1.02341
				1.00822
				1.02317
				1.01464
				1.01398
				0.997468
				1.0085
				1.016
				1.01813
				1.00409
				1.01905
				1.00013
				0.875336
				1.00636
				0.82586
				1.02327
				0.95335
				0.987911
				1.02296
				0.976274
				1.01317
				0.993938
				1.00827
				1.01303
				1.0045
				1.00975
				1.01177
				0.909112
				0.963437
				0.959656
				1.01981
				1.02023
				1.00974
				1.02289
				0.987419
				0.984525
				1.02103
				1.00287
				1.00927
				1.01979
				1.00812
				1.01662
				1.0143
				1.01925
				1.02106
				0.955727
				1.01895
				1.02156
				1.01281
				0.989947
				1.01456
				1.00356
				1.01254
				1.01475
				1.00273
				1.01685
				0.852581
				1.00657
				0.969284
				1.02044
				0.999987
				1.01119
				1.02146
				0.957068
				1.01097
				0.994128
				1.00229
				1.00913
				0.982645
				0.926857
				0.970323
				0.999686
				1.01258
				1.00293
				1.00323
				1.02056
				1.01923
				1.01902
				0.995915
				1.01721
				1.01198
				0.992177
				0.956239
				1.00511
				1.0051
				1.0167
				1.0019
				1.01187
				1.01717
				1.01141
				1.01897
				1.01691
				1.01925
				0.878601
				1.01278
				1.01096
				1.00483
				1.01343
				0.972573
				1.01433
				1.00622
				1.01861
				1.01879
				0.9699
				0.986105
				0.999775
				0.996018
				1.00711
				0.998866
				1.01056
				1.00277
				0.921641
				1.00979
				0.989677
				1.00863
				0.972468
				1.00237
				1.01871
				1.01665
				0.995929
				1.01608
				1.01495
				1.0115
				1.00413
				1.01458
				0.88987
				0.943479
				0.985532
				1.00004
				0.915613
				1.01825
				1.004
				1.01679
				1.01289
				1.01175
				1.01034
				1.01488
				1.01475
				1.0049
				0.985545
				1.00966
				1.01067
				1.01261
				1.00692
				0.998376
				1.0035
				1.01663
				0.962073
				0.998143
				0.989946
				1.00758
				1.01684
				0.978925
				0.998609
				0.98665
				1.00761
				0.94046
				1.0011
				1.01497
				1.00866
				1.00026
				1.01039
				1.00105
				1.01554
				1.01285
				1.00246
				1.01291
				1.0038
				0.908963
				0.991147
				1.01552
				0.961145
				1.00983
				1.00908
				0.919301
				0.999148
				1.01518
				1.00928
				0.986704
				1.01295
				1.01283
				1.00775
				1.00663
				1.00976
				1.00782
				0.995118
				1.01055
				1.00166
				1.00413
				0.999189
				0.996377
				0.969973
				1.01509
				0.987887
				1.01458
				1.00035
				0.983502
				0.931406
				0.99209
				1.01306
				0.99472
				1.0072
				1.00542
				1.00071
				1.00102
				1.01302
				1.00915
				1.0112
				1.00109
				0.939876
				1.01418
				1.01123
				0.99961
				0.984546
				1.01352
				1.0013
				1.00747
				1.01039
				0.994838
				1.01121
				1.01125
				1.00666
				0.994675
				1.00494
				1.00707
				1.00577
				1.00755
				0.938501
				1.00931
				0.996183
				1.00217
				1.01335
				0.994843
				0.987106
				0.992237
				0.966916
				0.945626
				1.00012
				1.0132
				1.01166
				0.990844
				0.997755
				1.00644
				1.0036
				1.00576
				1.00096
				1.00813
				1.01258
				1.00269
				1.00958
				1.00994
				1.00104
				1.01212
				1.00671
				0.990356
				1.01229
				0.997555
				0.995077
				0.950227
				1.00744
				1.00975
				1.00979
				1.00053
				1.0054
				1.00596
				0.94348
				0.996821
				1.00681
				1.00767
				1.00694
				0.990716
				1.0018
				0.991759
				0.976362
				1.01226
				0.995876
				1.00037
				1.01099
				0.972711
				1.01014
				0.994704
				0.996393
				1.00228
				1.00313
				1.00531
				1.00063
				1.00682
				1.01058
				1.00838
				1.01068
				1.00046
				1.00006
				1.00863
				1.01065
				0.986022
				0.958653
				0.954127
				1.00574
				0.999655
				0.999302
				1.00108
				1.0086
				0.995238
				1.00436
				1.00549
				1.0086
				1.00844
				1.00682
				1.00537
				1.00513
				0.993571
				1.00137
				0.999337
				1.01085
				0.992366
				0.9693
				1.009
				1.01016
				0.992734
				0.971002
				0.994936
				1.00598
				1.00435
				1.00386
				0.996535
				1.00087
				1.00357
				1.00231
				0.955975
				1.00771
				1.00928
				1.01028
				1.00711
				0.999802
				1.00963
				1.00514
				0.989686
				0.963861
				0.996413
				1.00298
				0.996131
				0.999135
				1.00626
				0.975766
				0.996875
				1.00743
				0.99695
				1.00742
				1.00448
				1.00545
				1.00551
				1.00483
				1.00062
				0.999408
				0.991464
				1.00983
				1.00921
				1.00785
				0.99729
				1.00395
				0.981584
				0.995318
				0.962554
				1.00306
				1.00526
				1.00135
				0.997617
				1.00201
				1.00093
				1.00842
				1.00627
				1.00874
				0.999235
				1.00008
				1.00667
				1.00871
				0.967198
				1.0025
				0.985097
				1.00437
				1.00717
				1.00132
				0.998394
				0.995813
				0.971157
				0.997758
				1.00472
				1.00498
				1.00661
				1.004
				1.00637
				1.00829
				1.00329
				0.998544
				1.0005
				1.00881
				1.00717
				0.998001
				1.00833
				1.00325
				0.993941
				1.00468
				1.00205
				0.993853
				0.981341
				0.972502
				1.00379
				0.99986
				1.00188
				0.997795
				0.988753
				1.006
				1.00529
				1.0085
				1.00801
				1.00239
				0.99934
				1.00397
				1.00731
				0.975876
				1.0011
				0.994995
				1.00605
				0.996457
				0.999784
				1.00017
				1.00452
				1.0057
				1.00326
				1.00565
				1.00399
				0.998966
				1.00333
				1.00007
				0.999379
				1.00703
				1.0081
				1.00717
				1.00616
				0.99354
				1.00374
				1.00088
				1.00414
				1.00285
				0.99583
				1.00327
				0.989164
				0.995757
				0.974772
				0.984952
				1.00004
				1.00471
				1.00748
				1.00518
				0.999462
				1.00695
				1.00679
				1.00201
				0.996684
				0.976054
				1.00339
				0.99692
				1.00227
				1.00034
				1.00656
				1.00044
				1.00399
				1.00014
				1.00367
				0.997981
				1.0051
				1.00304
				1.00485
				1.00234
				1.0002
				1.00735
				0.999963
				1.00671
				1.00553
				1.00228
				0.987749
				0.994833
				1.00376
				1.00387
				0.994913
				0.999814
				1.00234
				1.00353
				0.988906
				1.00578
				0.994201
				1.00107
				0.983118
				1.00468
				1.00639
				1.00397
				1.00714
				0.999133
				0.980241
				1.00316
				0.99601
				1.00212
				1.00207
				1.00014
				0.998126
				1.00566
				1.00126
				1.00381
				1.00006
				1.00439
				1.00252
				1.00106
				1.0029
				1.00433
				1.00595
				1.00236
				0.999855
				1.0066
				1.00481
				0.984793
				0.994499
				0.991882
				1.00189
				0.995551
				1.00446
				1.00341
				0.999131
				1.00329
				1.00535
				1.00217
				1.00003
				0.992208
				0.996013
				1.00357
				1.00405
				1.00637
				0.983789
				1.00572
				0.999176
				0.982922
				1.00269
				1.00272
				1.00242
				0.997837
				0.998069
				1.00335
				0.999236
				1.00577
				1.00144
				1.00148
				1.00533
				0.987787
				1.00272
				0.999661
				1.00397
				1.00237
				1.00371
				1.00148
				1.00602
				1.00445
				1.0054
				1.0027
				0.996017
				1.00317
				0.99322
				0.998711
				1.00394
				0.996258
				1.00172
				0.991642
				1.0037
				1.00051
				1.00533
				0.995926
				1.00322
				1.00461
				1.00299
				1.00597
				0.985468
				0.988418
				0.999041
				1.00254
				1.00256
				1.00194
				0.996321
				0.99826
				0.986525
				1.00514
				1.00212
				1.00159
				1.00197
				0.99137
				1.00343
				0.999981
				1.00196
				1.00214
				1.00335
				1.00454
				1.00464
				1.00547
				1.00255
				1.00165
				1.00384
				0.995492
				1.00432
				1.0012
				1.00279
				0.99376
				1.00166
				0.993728
				0.999452
				1.0032
				1.00299
				1.00432
				0.988084
				1.00275
				1.00539
				1.00462
				0.999416
				0.998961
				0.989532
				0.997581
				1.00217
				1.00278
				0.989435
				0.997966
				1.00163
				1.00216
				1.00216
				1.00506
				0.991553
				0.99747
				1.00207
				0.999736
				1.00312
				1.00195
				1.00298
				1.00288
				1.0044
				1.00505
				1.00104
				1.0035
				1.00383
				1.00267
				0.996724
				0.999453
				0.997398
				1.00369
				1.00163
				1.00293
				1.0043
				0.992951
				1.00019
				1.00503
				1.00231
				0.989477
				1.00227
				0.998953
				0.996751
				1.00277
				1.00214
				0.989584
				1.00252
				1.00239
				0.994182
				0.998451