<VTKFile type="UnstructuredGrid" version="0.1" byte_order="LittleEndian">
<UnstructuredGrid>
	<Piece NumberOfPoints="1485" NumberOfCells="2857">
		<CellData Scalars="density" Vectors="velocity">
			<DataArray type="Float64" Name="density" Format="ascii">
				1.40237
				1.37886
				1.35624
				1.27671
				1.31858
				1.33782
				1.35504
				1.22071
				1.20383
				1.14339
				1.12907
				1.23206
				1.31599
				1.32426
				1.33904
				1.0488
				1.33682
				1.249
				1.1635
				1.23693
				1.12933
				1.04213
				1.29973
				1.28983
				1.30779
				1.05446
				1.30967
				1.14461
				1.06934
				1.1924
				1.24409
				0.96616
				1.14095
				1.21381
				1.07502
				0.992355
				0.975429
				1.05482
				1.30595
				1.13763
				1.27396
				1.2731
				0.91014
				1.2915
				0.999299
				1.07228
				1.29202
				1.18989
				0.951293
				0.922014
				1.16068
				1.23568
				0.998949
				1.00684
				1.21072
				1.08726
				1.07394
				0.869977
				1.14324
				1.27416
				0.942906
				1.01564
				0.921043
				0.883594
				1.2648
				1.25053
				1.25615
				0.842731
				0.958661
				0.856375
				1.26137
				0.876237
				0.928066
				1.16509
				0.896566
				1.21999
				1.02081
				0.823914
				1.08363
				0.901154
				1.08665
				0.954075
				1.19419
				0.973475
				1.02143
				1.26574
				1.1365
				0.809435
				1.26706
				0.856678
				0.837811
				1.23282
				0.90277
				1.23334
				1.24964
				1.16036
				0.871292
				0.794047
				0.94114
				1.212
				1.23623
				1.02766
				1.18623
				1.24887
				1.0837
				0.839626
				0.82101
				0.912494
				1.08986
				0.967373
				0.980084
				0.881157
				1.03232
				1.13591
				1.23863
				1.06104
				0.774189
				0.850317
				0.82598
				0.914307
				1.2162
				1.17526
				0.801472
				1.22596
				1.22291
				0.861806
				1.14179
				0.762237
				0.883847
				0.947849
				1.19824
				1.03398
				1.17393
				0.812466
				1.23511
				1.22189
				1.08743
				0.831241
				0.924537
				1.22802
				0.891354
				0.975653
				0.991038
				0.785532
				1.09089
				1.04741
				1.03625
				0.742333
				0.846268
				1.12944
				1.23087
				0.799719
				1.19977
				0.862778
				1.07077
				0.920234
				1.1644
				0.768016
				0.731731
				0.810557
				1.14412
				0.870971
				1.2001
				0.831986
				1.21425
				0.791994
				1.16538
				0.894858
				0.958567
				1.18876
				1.03595
				0.716378
				1.03584
				1.099
				1.14885
				1.12809
				1.20857
				1.08548
				0.750734
				0.837166
				0.934384
				0.792701
				0.779433
				0.896504
				0.983126
				0.997236
				1.21261
				0.817841
				0.854188
				1.09108
				1.04199
				1.20239
				1.20598
				0.70424
				1.12649
				1.10726
				0.73586
				0.758782
				1.05605
				1.10093
				0.871636
				1.0601
				0.929967
				1.18806
				0.807715
				0.692898
				0.774501
				0.822635
				1.14408
				1.07054
				0.838829
				0.878438
				0.749866
				1.19348
				0.721043
				1.20375
				1.19113
				1.17215
				0.681581
				1.15615
				0.907512
				0.965874
				0.797291
				1.03937
				1.08589
				1.02279
				0.740087
				0.757318
				0.845884
				1.08589
				1.09518
				0.672463
				1.20546
				0.94113
				0.905824
				0.823957
				0.797551
				0.708172
				0.988712
				1.004
				1.18962
				0.861225
				0.735364
				1.04396
				0.780077
				1.19921
				0.663304
				1.08648
				1.04012
				1.19567
				1.09919
				0.742174
				1.04524
				0.695781
				0.727889
				1.11989
				1.17366
				0.877181
				0.812878
				0.655924
				0.935591
				1.09549
				0.76429
				1.1362
				0.782333
				0.829484
				0.72277
				0.886932
				0.843901
				0.649849
				1.05089
				1.18051
				0.684874
				0.727726
				1.07928
				0.718156
				0.753904
				0.91261
				0.80149
				1.18478
				0.644158
				1.16571
				1.17237
				1.15008
				0.973595
				1.0629
				0.674886
				0.715154
				1.04018
				1.01135
				0.761455
				0.63979
				0.858583
				1.18184
				1.08359
				0.714785
				0.745986
				0.805098
				0.713542
				0.832037
				0.914291
				0.946203
				0.635371
				1.17716
				0.99365
				1.00849
				1.03053
				0.868256
				0.783801
				1.08901
				0.666069
				0.713723
				1.09612
				1.04586
				1.02487
				0.632202
				1.07323
				0.738892
				1.18272
				0.714747
				0.702312
				1.08395
				0.629067
				1.07848
				0.746895
				0.658767
				1.14319
				0.717951
				0.892212
				1.16514
				0.628413
				0.768055
				1.17407
				1.11574
				0.732099
				0.819348
				0.943372
				0.760185
				0.788517
				0.626998
				1.0735
				0.65232
				0.835331
				1.07038
				1.17603
				0.921578
				0.62543
				0.691485
				0.850447
				1.03348
				0.95068
				0.896511
				0.726568
				0.62294
				1.11938
				0.954072
				0.731871
				0.757452
				0.619941
				0.646882
				0.991366
				0.961939
				0.616537
				1.17961
				0.9689
				1.04852
				0.612776
				1.16571
				0.976956
				0.722276
				0.608951
				0.801526
				0.986284
				0.605516
				0.68121
				0.978415
				1.01073
				0.641983
				0.769542
				1.13939
				1.15127
				0.997572
				1.16642
				0.749601
				0.71953
				1.0409
				0.863071
				0.748769
				0.637922
				0.717633
				0.837611
				0.813681
				1.08178
				0.92105
				0.672379
				0.952601
				0.901339
				0.718445
				1.17851
				1.07508
				1.00961
				1.01741
				1.1716
				0.63437
				0.788956
				0.997397
				0.873677
				0.742216
				1.07514
				0.718668
				1.04357
				1.07517
				0.632399
				1.05131
				0.664876
				0.753515
				0.720533
				0.705945
				0.63087
				0.735551
				1.16266
				1.14976
				0.724485
				0.82351
				0.772044
				1.08122
				0.62918
				1.13356
				0.658068
				0.950936
				0.852728
				0.793211
				0.62691
				0.848969
				1.07771
				0.729881
				0.945703
				1.01866
				1.11245
				1.15728
				0.624032
				1.16836
				0.693899
				1.0805
				0.952707
				0.902217
				0.859118
				0.65248
				1.07227
				0.620723
				0.739983
				1.03308
				0.960061
				0.617054
				0.763551
				1.00646
				0.966787
				0.72554
				0.613214
				0.974154
				0.609589
				0.982736
				1.11692
				0.806073
				0.609748
				1.15901
				0.931192
				0.993101
				0.647144
				1.00518
				0.995517
				0.684289
				1.06486
				0.722649
				1.04481
				1.15808
				1.06455
				0.642978
				0.774323
				0.753267
				0.724507
				0.721426
				1.13516
				1.03978
				1.14542
				1.14817
				0.817276
				1.15204
				1.15753
				0.639027
				0.845274
				0.675426
				0.93042
				0.960577
				0.907903
				0.792673
				1.06663
				0.721405
				0.878726
				1.07816
				0.637171
				1.00062
				1.06101
				0.723136
				1.04461
				1.03447
				0.854885
				0.634954
				0.714017
				0.667466
				0.74658
				0.726897
				0.758328
				0.632983
				0.739535
				1.07526
				0.777257
				0.855602
				0.630381
				0.823895
				1.0015
				0.947534
				0.660992
				0.958819
				0.806286
				0.627372
				1.07836
				0.955251
				1.15713
				0.623976
				0.700737
				0.734163
				1.15689
				0.962224
				0.620232
				1.00904
				0.863197
				0.968828
				0.616395
				0.654673
				0.976105
				0.612861
				1.10687
				0.767458
				0.907941
				1.06417
				0.984719
				0.743098
				1.01996
				0.934966
				0.612692
				0.99491
				1.00675
				1.05747
				1.1521
				1.0805
				0.730138
				1.1503
				1.13318
				1.11394
				0.649884
				0.692098
				0.81131
				1.02017
				0.727719
				1.14103
				1.12987
				0.758034
				1.15748
				0.777841
				0.645134
				1.04563
				0.726496
				0.728775
				0.682137
				1.06195
				0.847888
				0.642794
				1.03879
				0.932359
				0.727313
				0.750385
				0.796971
				1.15462
				1.14717
				0.966383
				0.919648
				0.63944
				1.1425
				0.886752
				0.729575
				0.674784
				1.00322
				1.07494
				0.63705
				0.861581
				0.811128
				0.770512
				0.716582
				1.06108
				0.763926
				1.04324
				0.744127
				1.05968
				0.634225
				1.02789
				0.918662
				0.667245
				0.63129
				0.783535
				0.832394
				0.949035
				1.06873
				0.628007
				0.73796
				1.06195
				1.06347
				0.961381
				0.624342
				1.00653
				1.06325
				1.04631
				1.01383
				0.965487
				0.966604
				0.704375
				0.661293
				0.620604
				0.973287
				1.00189
				0.617072
				1.14181
				0.980744
				0.613467
				1.13893
				0.990689
				0.868024
				0.746448
				0.734483
				0.919843
				1.01419
				1.00168
				0.755982
				1.07446
				0.771419
				0.655602
				0.813706
				0.731303
				1.10251
				0.695457
				1.05748
				0.651123
				1.06488
				1.11976
				1.10232
				1.13748
				1.14474
				1.13861
				0.762431
				0.73039
				1.02821
				0.740217
				1.13424
				0.648283
				1.05146
				1.12638
				0.684984
				0.730523
				1.12254
				1.1362
				0.644862
				0.806352
				0.775341
				0.754661
				0.732948
				0.88869
				0.641515
				1.13025
				0.927519
				1.03444
				0.767783
				0.971319
				0.678064
				0.835826
				0.63863
				0.720376
				0.817474
				1.05273
				0.919833
				1.0018
				0.874592
				0.634995
				0.748489
				0.952421
				0.924245
				0.786248
				1.06271
				1.06915
				0.63197
				1.04084
				1.04812
				0.66953
				0.964185
				0.627792
				0.968873
				1.13641
				0.624469
				0.975681
				0.742883
				1.00562
				0.620667
				0.715157
				0.982779
				1.046
				0.617542
				0.971984
				0.993588
				0.757743
				1.003
				1.01508
				1.01747
				0.664392
				1.01043
				0.879663
				0.780455
				0.739724
				1.06318
				0.657827
				1.13963
				1.06864
				0.700082
				0.736629
				1.13449
				0.74516
				1.03078
				0.655557
				0.765176
				1.09455
				1.0307
				1.04583
				0.736462
				0.811067
				0.650292
				0.69516
				1.05426
				1.04989
				1.06771
				0.737195
				1.13752
				1.1271
				1.12784
				0.647019
				0.762379
				1.05466
				1.11989
				0.783214
				1.13349
				1.09546
				1.1097
				0.741048
				1.11368
				1.12133
				1.05253
				0.642622
				0.683097
				0.838348
				0.841772
				0.639455
				0.751193
				1.04082
				0.937286
				0.926734
				1.12638
				1.03305
				0.987477
				0.635608
				0.678753
				0.962873
				0.63222
				0.930545
				0.827067
				0.720691
				0.885493
				0.967429
				1.05863
				0.628208
				0.749996
				0.880993
				0.972917
				1.00918
				0.625235
				1.06554
				1.02636
				0.978517
				1.12126
				0.621287
				0.950859
				0.988154
				0.784918
				0.669462
				0.622252
				0.999631
				1.01008
				1.04809
				0.742503
				0.978301
				1.0415
				0.666097
				1.02147
				1.02514
				0.742797
				1.12279
				0.660915
				1.05433
				0.753916
				1.11776
				0.991449
				0.739297
				1.05236
				1.06371
				0.657587
				0.815706
				1.06027
				0.742341
				0.767392
				0.651467
				1.12037
				1.08915
				0.743746
				0.700468
				1.04643
				1.11704
				0.648669
				1.04091
				0.834461
				0.64304
				1.02873
				1.05449
				1.1235
				1.12471
				0.929282
				1.05055
				0.791459
				1.11456
				1.08636
				0.640725
				1.10297
				0.966575
				0.683764
				1.10679
				0.635321
				1.10368
				0.970149
				1.044
				0.633098
				0.853075
				0.75635
				0.975562
				0.729854
				1.0113
				0.628583
				0.949417
				0.981609
				1.11136
				0.626364
				0.947954
				0.98931
				0.627279
				1.01235
				1.00077
				1.031
				0.790396
				0.831974
				0.891208
				0.940059
				0.892565
				0.672777
				1.04245
				1.06185
				1.03828
				0.750103
				1.02689
				1.01917
				0.988913
				1.12229
				1.05522
				1.11027
				0.709698
				0.996673
				0.661166
				1.04103
				0.762819
				0.751597
				1.04124
				0.773137
				1.05462
				1.11404
				1.04259
				1.05827
				0.824691
				0.650476
				1.03241
				0.865616
				1.11873
				1.08204
				1.037
				1.11494
				1.0587
				0.641691
				0.692778
				0.969977
				1.04029
				0.79735
				0.634785
				0.761909
				1.04534
				1.1057
				0.977231
				0.98967
				0.958774
				0.628589
				0.989896
				0.816353
				0.856668
				1.0808
				1.00192
				1.10177
				1.05324
				1.09757
				0.737751
				1.10238
				1.09194
				1.02018
				1.04388
				1.10797
				0.681216
				1.02756
				0.799597
				0.995094
				1.04349
				0.840635
				0.755258
				1.021
				0.901696
				0.90156
				0.947213
				1.05733
				0.668891
				1.10753
				1.0341
				1.03885
				0.757085
				1.03612
				1.10695
				1.10286
				1.00005
				0.716553
				0.769521
				1.04045
				1.09869
				0.657402
				0.784065
				0.877224
				0.827778
				1.04549
				1.10264
				0.647668
				1.10092
				1.03236
				1.05277
				0.973809
				0.640058
				1.04371
				0.980959
				0.996633
				0.701304
				0.633264
				1.0383
				1.07651
				0.841921
				1.05517
				1.03383
				0.774214
				0.807126
				0.745085
				0.971085
				1.04501
				0.865778
				1.07225
				1.02502
				0.993374
				1.10254
				1.00397
				1.08757
				0.685548
				0.803341
				1.09725
				1.08927
				1.09524
				0.767595
				1.08734
				1.03713
				0.846898
				1.01729
				1.10257
				0.911654
				1.00304
				0.905966
				0.671051
				0.955091
				0.794794
				1.01909
				1.0479
				0.724421
				1.03112
				1.04966
				1.03521
				1.03474
				1.04526
				1.10415
				0.658578
				0.788115
				1.09276
				0.778288
				0.931112
				1.09297
				1.09536
				0.649487
				0.837351
				0.97665
				1.03863
				1.05151
				1.10193
				1.09889
				0.642204
				1.04681
				0.985093
				0.709649
				1.04515
				1.03274
				0.773129
				1.01316
				0.778216
				1.03393
				1.03115
				1.06943
				0.812973
				0.974797
				1.03028
				1.04472
				0.693546
				0.753177
				0.869279
				0.771464
				0.998397
				1.0883
				1.04334
				1.0382
				0.81493
				1.06726
				1.00752
				1.08581
				1.09186
				1.08265
				0.678415
				1.08595
				0.85868
				1.07676
				1.08987
				0.800797
				0.923192
				0.913403
				1.03754
				1.01828
				0.665146
				0.96017
				0.734571
				0.931939
				1.08997
				0.785095
				1.03206
				0.80144
				0.655284
				0.977928
				1.03429
				1.08221
				1.09169
				0.647078
				0.840542
				1.08865
				0.79288
				1.09121
				1.08866
				1.0358
				0.986814
				0.714532
				1.03885
				0.791277
				0.999548
				1.0253
				1.0381
				0.993965
				1.03141
				0.822565
				1.04789
				1.03248
				1.03594
				0.760381
				1.06267
				1.03123
				0.696085
				0.786473
				0.878596
				0.818093
				1.03711
				1.03712
				0.679933
				1.00772
				1.05944
				0.864279
				1.08062
				1.08587
				0.870825
				1.07431
				0.934258
				1.07351
				0.917701
				1.08236
				0.74223
				0.66766
				1.07312
				0.957061
				0.965142
				0.804911
				1.09016
				1.02915
				0.65802
				1.07745
				0.98027
				0.794091
				1.01267
				1.02415
				0.663861
				0.964578
				1.03383
				1.03532
				0.997154
				1.04303
				1.03109
				0.853289
				1.08788
				1.07959
				0.722715
				1.08485
				0.990105
				1.07687
				0.794813
				1.032
				1.05678
				1.03771
				1.04509
				0.704058
				0.828009
				1.03777
				0.791498
				0.772091
				1.02475
				1.02553
				1.02846
				0.882644
				0.832006
				0.687428
				1.02671
				1.03488
				0.874841
				0.674651
				1.00697
				1.03144
				1.07288
				0.876113
				1.07681
				0.936792
				0.956481
				1.03626
				1.05496
				1.01111
				1.07167
				1.07829
				0.664082
				0.747754
				1.0685
				0.924254
				1.07909
				0.668095
				0.977756
				0.819264
				1.06367
				1.07224
				0.970551
				0.800271
				1.00487
				0.960012
				0.981353
				0.990243
				1.02232
				1.0303
				1.07614
				1.0318
				0.856582
				1.07465
				1.02532
				1.0301
				0.725899
				1.06786
				1.07431
				0.804528
				1.07463
				1.0486
				0.705999
				0.777401
				1.02576
				0.837291
				0.829545
				0.833885
				1.03154
				1.02023
				0.893896
				0.690952
				1.0258
				0.931756
				1.02391
				1.03033
				1.02658
				1.01892
				1.03709
				0.678084
				1.04755
				0.879
				0.753753
				0.668165
				0.974957
				1.07384
				1.03022
				1.06735
				0.809314
				1.0016
				0.821891
				0.943823
				1.06142
				1.07084
				0.929061
				1.06782
				1.06017
				0.974122
				1.00726
				0.81365
				1.07679
				1.06057
				1.03607
				1.06901
				0.733633
				0.871265
				0.985035
				0.80768
				1.07263
				1.00555
				1.03075
				1.01889
				1.02713
				1.06585
				1.0177
				1.01658
				0.712497
				1.02364
				1.04314
				0.836072
				1.0642
				1.06349
				0.840651
				0.783127
				1.02268
				0.698661
				1.01933
				1.03058
				0.93249
				0.847288
				0.897345
				0.684169
				1.00091
				1.01893
				1.03115
				0.67473
				1.06522
				0.976639
				0.807121
				1.0374
				1.02309
				0.886435
				0.757752
				0.832897
				1.04333
				0.947918
				1.05995
				0.93615
				0.98467
				1.06596
				1.02433
				1.05921
				0.814912
				1.06569
				1.06482
				1.06581
				1.01846
				1.02971
				1.05438
				0.873235
				0.736303
				0.986009
				1.06152
				0.816304
				1.05194
				1.05996
				1.0084
				1.03051
				1.02455
				1.05579
				1.01952
				0.717182
				1.02835
				0.883472
				1.02215
				1.01778
				0.781417
				0.855754
				0.702964
				0.845859
				0.944889
				1.06489
				1.06186
				1.01377
				0.908212
				0.689151
				1.0129
				1.05561
				0.689283
				0.988378
				1.03224
				0.769339
				0.936823
				1.01961
				1.02538
				0.890611
				1.01805
				0.843286
				0.988889
				1.0142
				1.02478
				1.02712
				1.03496
				0.939868
				0.951014
				0.819042
				0.736832
				1.0584
				1.0643
				1.0502
				1.04627
				1.05546
				0.81577
				0.879875
				1.02871
				0.983241
				1.05632
				1.02477
				1.05968
				0.728909
				1.04876
				0.885161
				1.02296
				1.05636
				1.0139
				1.05408
				0.705952
				0.854228
				0.945679
				1.05421
				1.025
				1.01034
				0.700721
				0.987588
				1.01726
				1.01601
				0.773788
				1.01116
				0.907868
				0.696554
				1.01232
				1.05202
				1.05473
				0.848936
				1.01378
				1.00024
				0.896612
				0.898247
				1.01489
				1.01573
				1.03065
				0.988649
				1.02501
				0.965081
				0.831676
				0.943233
				1.02871
				1.05378
				1.05325
				1.04924
				0.894112
				1.03907
				0.735263
				1.04813
				0.890449
				1.01942
				1.05024
				1.02387
				1.05411
				1.01558
				1.01937
				1.04144
				1.02029
				0.710935
				1.04561
				1.00021
				1.0488
				1.01749
				0.966393
				1.01473
				0.784382
				1.02524
				0.859274
				0.966527
				0.839122
				0.998698
				0.906322
				1.05374
				1.01004
				1.01764
				1.05084
				1.0453
				1.02532
				0.908361
				0.901414
				1.00599
				1.02664
				1.00786
				1.03731
				1.01448
				1.01533
				0.947347
				0.987721
				1.02049
				0.745726
				1.0165
				1.0449
				0.901274
				1.05177
				1.04786
				1.02345
				1.04067
				0.72369
				1.0487
				0.969168
				1.01708
				1.00019
				1.01294
				1.01184
				1.04612
				1.03863
				1.01581
				1.01971
				1.04496
				1.04414
				1.00912
				1.04578
				0.793974
				1.02292
				0.9826
				0.883792
				1.04461
				1.01405
				0.844581
				1.01142
				1.04276
				1.02391
				0.919652
				1.01373
				1.00871
				0.905859
				1.0256
				0.916551
				1.02443
				1.00848
				1.0448
				1.00064
				1.03469
				1.00989
				0.953384
				0.999981
				0.755533
				1.0432
				0.935528
				1.02062
				1.04046
				0.986992
				1.04386
				0.761672
				1.03869
				0.981741
				1.04101
				1.02022
				1.01105
				1.00956
				1.00981
				1.00503
				1.0442
				1.01548
				1.03739
				0.798698
				1.01881
				1.03754
				0.89035
				1.0101
				1.03281
				0.998979
				1.00748
				1.01262
				1.03955
				1.01963
				1.04378
				1.02067
				0.85454
				1.04158
				0.918665
				0.916137
				0.761344
				0.960382
				1.00314
				0.937633
				1.02408
				0.986306
				1.03741
				1.0116
				1.03288
				1.00693
				0.953935
				1.04222
				1.01416
				1.0014
				1.01607
				1.03935
				0.769874
				0.967424
				1.01232
				1.01948
				1.03766
				1.00813
				1.03975
				1.03258
				1.03746
				1.0069
				1.00569
				1.00576
				0.808352
				1.01329
				1.01888
				1.03575
				1.03759
				1.01549
				0.917553
				1.00431
				1.0304
				1.03721
				0.98501
				1.00947
				1.03623
				1.02002
				1.03721
				1.0096
				0.854934
				1.03473
				1.02016
				0.778468
				0.920411
				0.964806
				0.918034
				1.02885
				0.958421
				0.99874
				1.00484
				1.00445
				0.953618
				1.03527
				1.00039
				1.00233
				1.01182
				1.03668
				1.03389
				0.80892
				1.00831
				1.01254
				1.01613
				0.969448
				1.03197
				1.03343
				1.03598
				1.01534
				1.03069
				0.808401
				0.921912
				0.986526
				1.00134
				1.03011
				1.00333
				1.01703
				1.03604
				1.01168
				1.00587
				0.965115
				1.03113
				1.02557
				0.777076
				1.00897
				0.862159
				1.03574
				1.03425
				1.03222
				0.986685
				1.00273
				0.932502
				0.920128
				1.01796
				0.997351
				1.02656
				1.00058
				0.963287
				0.970391
				1.00648
				1.03446
				0.998237
				1.03139
				0.815662
				1.02988
				1.00617
				1.01001
				0.963551
				1.03185
				1.00328
				1.01052
				1.01455
				1.01553
				1.01209
				1.03109
				1.03249
				1.03029
				0.819765
				0.99957
				1.02544
				0.946295
				1.0155
				1.00188
				1.02835
				0.983196
				1.0017
				1.03067
				1.01168
				0.988455
				0.864017
				1.02959
				1.02368
				1.02784
				1.00301
				0.938835
				1.00544
				0.968086
				1.03035
				0.823867
				0.922249
				1.00379
				1.00237
				0.999598
				1.02965
				1.02888
				1.01544
				1.00217
				1.024
				1.02588
				1.00158
				0.955545
				1.02801
				0.969633
				1.00315
				1.01138
				0.821041
				0.949798
				1.02747
				1.02982
				1.00381
				1.01498
				1.0122
				1.01151
				1.02397
				1.02644
				1.01302
				0.983222
				1.02343
				0.998442
				0.999494
				1.02935
				1.00293
				1.00803
				0.991677
				0.870846
				1.0064
				1.02909
				0.95177
				1.01957
				0.970159
				1.00008
				1.00282
				0.994136
				0.927512
				0.970428
				1.02626
				1.0062
				0.847712
				1.0256
				1.02382
				1.02836
				1.01393
				1.00418
				1.00292
				0.999288
				1.02443
				1.02254
				0.94974
				1.01029
				0.968944
				1.02333
				1.02478
				1.00064
				1.02653
				1.01137
				1.00889
				1.00156
				1.01344
				1.01227
				1.01962
				0.993838
				1.02217
				0.99654
				0.875388
				1.0009
				0.853489
				1.02499
				0.955534
				0.990658
				1.02385
				0.989195
				1.00828
				1.0055
				1.00017
				1.018
				0.999178
				0.998686
				1.00572
				0.931645
				0.975558
				0.974108
				1.02114
				1.02478
				1.00355
				1.02419
				0.997095
				0.970272
				1.02322
				0.999901
				1.00121
				1.02233
				1.01098
				1.01974
				1.00941
				1.02061
				1.02232
				0.937939
				1.02098
				1.02405
				1.00879
				0.999911
				1.00965
				1.01229
				1.00905
				1.01836
				0.992992
				1.01817
				0.88974
				1.00138
				0.967579
				1.0239
				0.997886
				1.00318
				1.02381
				0.97627
				1.00543
				0.981735
				0.994014
				1.00468
				0.997137
				0.937794
				0.97694
				0.998302
				1.0146
				0.998084
				0.998168
				1.02315
				1.02137
				1.02101
				0.983993
				1.01982
				1.00861
				0.997743
				0.930191
				1.01042
				1.00012
				1.01826
				1.00935
				1.0183
				1.0184
				1.00889
				1.0215
				1.01904
				1.02044
				0.893085
				1.00935
				1.0065
				0.999373
				1.01494
				0.970377
				1.0171
				0.999944
				1.01984
				1.0202
				0.976513
				0.979244
				0.99212
				0.995831
				1.002
				0.997893
				1.00569
				0.997944
				0.944185
				1.00562
				0.996927
				1.01323
				0.981116
				0.998615
				1.01987
				1.01818
				0.98442
				1.02023
				1.0162
				1.00691
				0.998863
				1.0163
				0.918476
				0.93447
				0.995938
				1.00884
				0.917663
				1.02026
				1.00706
				1.0179
				1.01605
				1.00799
				1.00677
				1.01718
				1.01604
				0.998455
				0.980596
				1.00681
				1.01387
				1.0139
				0.99982
				0.992015
				0.999411
				1.01943
				0.976161
				0.995986
				0.976738
				1.00458
				1.01886
				0.982972
				0.996299
				0.996714
				1.00363
				0.945856
				0.997719
				1.01675
				1.01063
				0.997254
				1.00631
				0.994224
				1.01741
				1.01522
				0.998587
				1.01429
				1.00794
				0.931571
				0.995265
				1.01649
				0.942944
				1.00727
				1.00681
				0.927288
				1.00564
				1.01738
				1.01482
				0.98223
				1.01417
				1.01469
				1.00484
				1.00241
				1.01123
				1.00363
				0.986411
				1.01304
				0.998895
				0.998637
				0.993328
				0.995995
				0.97777
				1.01636
				0.978828
				1.01538
				0.996163
				0.987019
				0.94862
				0.997199
				1.01426
				0.995159
				1.00427
				1.00949
				0.994104
				0.99752
				1.01651
				1.00595
				1.01241
				0.998095
				0.94258
				1.01582
				1.01264
				1.00685
				0.994249
				1.0143
				1.00412
				1.0051
				1.0131
				0.989953
				1.01319
				1.01244
				1.00352
				0.983997
				0.99859
				1.00511
				1.00074
				1.01035
				0.950195
				1.01057
				0.992677
				0.99862
				1.01578
				0.995203
				0.988658
				0.97816
				0.978889
				0.944095
				0.996268
				1.01487
				1.01315
				0.9975
				0.995775
				1.00284
				0.999001
				1.00759
				0.997043
				1.00601
				1.01424
				1.00623
				1.01164
				1.01116
				0.998252
				1.01295
				1.00523
				0.993955
				1.01398
				1.00304
				0.990796
				0.963858
				1.01207
				1.01134
				1.01094
				0.997963
				1.00147
				1.00369
				0.956957
				0.991438
				1.00378
				1.00987
				1.00836
				0.979035
				0.998185
				0.99229
				0.980027
				1.01329
				0.995378
				0.996453
				1.01187
				0.965289
				1.01116
				0.998153
				0.995392
				0.998582
				1.00667
				1.00326
				0.997343
				1.00471
				1.01347
				1.00952
				1.01223
				0.998023
				1.00552
				1.00988
				1.01154
				0.993408
				0.968725
				0.960011
				1.00398
				1.002
				0.995522
				0.996674
				1.01075
				0.992383
				1.00075
				1.00334
				1.00973
				1.01015
				1.00802
				1.0039
				1.00764
				0.993487
				0.998394
				0.996901
				1.01277
				0.985201
				0.980572
				1.01025
				1.01178
				0.994441
				0.965322
				0.998876
				1.00455
				1.00202
				1.00074
				0.995961
				0.997275
				1.00529
				1.00507
				0.970592
				1.00888
				1.01016
				1.01164
				1.0089
				0.998377
				1.01122
				1.00398
				0.99291
				0.96685
				0.99612
				0.999889
				1.00115
				0.995963
				1.00984
				0.980638
				0.994008
				1.00881
				0.996194
				1.00848
				1.00284
				1.00332
				1.00744
				1.00618
				0.998124
				0.997299
				0.984451
				1.01077
				1.00986
				1.00887
				0.999304
				1.00209
				0.974506
				0.995261
				0.971521
				1.00057
				1.0037
				1.00453
				0.995699
				0.997456
				1.00473
				1.00942
				1.00733
				1.01101
				0.996114
				0.998187
				1.00775
				1.00928
				0.971017
				0.998354
				0.992177
				1.00309
				1.009
				0.998727
				1.00045
				0.993387
				0.980436
				0.996947
				1.00312
				1.0061
				1.00762
				1.00296
				1.00784
				1.00926
				1.00557
				0.996954
				0.998334
				1.01039
				1.00831
				0.999822
				1.0095
				1.00135
				0.989165
				1.00362
				1.00447
				0.994724
				0.975713
				0.974364
				1.00165
				0.99733
				1.0036
				0.996174
				0.991906
				1.00697
				1.00683
				1.00958
				1.0091
				0.999492
				0.998144
				1.00311
				1.00814
				0.981284
				0.998922
				0.999536
				1.00845
				0.995219
				0.998889
				0.995982
				1.00297
				1.00687
				1.00219
				1.00661
				1.00564
				0.99741
				1.00461
				0.997689
				1.0003
				1.0079
				1.00878
				1.00789
				1.00697
				0.989135
				1.00595
				1.00343
				1.003
				1.00163
				0.995437
				1.0015
				0.983264
				0.995087
				0.975908
				0.991597
				1.00294
				1.00568
				1.00912
				1.0061
				0.997678
				1.00761
				1.00802
				0.998977
				0.994911
				0.982729
				1.00245
				0.999558
				1.0005
				0.997996
				1.0078
				0.996975
				1.00284
				0.999369
				1.00468
				0.997184
				1.006
				1.0023
				1.0061
				1.00414
				1.00101
				1.0085
				0.997922
				1.00782
				1.00649
				1.00383
				0.991464
				0.992971
				1.00296
				1.00608
				0.995553
				0.997805
				1.001
				1.00205
				0.983742
				1.00644
				0.995164
				1.00257
				0.981685
				1.00556
				1.00745
				1.00527
				1.00794
				0.997703
				0.983612
				1.00249
				0.99921
				0.999766
				1.0006
				0.998025
				0.996731
				1.00746
				1.00057
				1.00265
				0.997688
				1.00539
				1.00169
				1.00152
				1.00431
				1.00518
				1.00645
				1.00348
				0.998387
				1.00721
				1.00556
				0.990674
				0.992824
				0.995836
				1.00382
				0.99574
				1.00582
				1.00251
				0.997074
				1.00196
				1.00609
				1.00126
				1.00218
				0.988922
				0.995841
				1.00443
				1.00482
				1.00761
				0.982331
				1.00613
				0.998174
				0.985503
				1.00198
				1.00154
				0.99946
				0.996828
				0.999705
				1.00246
				0.997495
				1.00674
				1.00087
				1.00201
				1.00603
				0.991046
				1.00363
				0.998184
				1.00474
				1.00181
				1.00477
				1.00313
				1.00702
				1.00529
				1.00623
				1.00384
				0.994812
				1.00247
				0.995962
				0.997859
				1.00563
				0.996087
				1.00079
				0.988821
				1.00441
				1.00189
				1.00605
				0.996115
				1.00227
				1.0052
				1.0041
				1.00663
				0.986379
				0.986868
				0.998099
				1.00203
				1.00158
				0.999892
				0.999497
				0.99731
				0.990529
				1.00644
				1.00161
				0.997733
				1.00218
				0.995396
				1.00426
				0.998884
				1.00134
				1.00333
				1.00409
				1.00517
				1.00516
				1.00593
				1.00381
				1.00267
				1.00442
				0.994646
				1.00528
				0.997785
				1.00212
				0.995611
				1.00097
				0.99158
				1.00156
				1.00384
				1.00227
				1.00519
				0.988624
				1.00349
				1.00638
				1.00507
				0.998687
				0.997773
				0.987086
				0.999544
				1.00165
				1.0019
				0.991802
				0.997137
				0.999411
				1.00241
				1.00164
				1.00579
				0.995336
				0.997508
				1.00285
				0.998617
				1.00378
				1.00145
				1.00374
				1.00375
				1.00515
				1.00578
				1.00238
				1.00418
				1.00507
				1.00215
				0.995682
				0.996835
				0.996511
				1.00417
				1.00057
				1.00356
				1.00499
				0.991495
				1.00141
				1.00554
				1.00322
				0.989628
				0.999524
				0.998475
				0.999313