<VTKFile type="UnstructuredGrid" version="0.1" byte_order="LittleEndian">
<UnstructuredGrid>
	<Piece NumberOfPoints="1485" NumberOfCells="2857">
		<CellData Scalars="density" Vectors="velocity">
			<DataArray type="Float64" Name="density" Format="ascii">
				1.43665
				1.37001
				1.38083
				1.29271
				1.31785
				1.33074
				1.35723
				1.22419
				1.20751
				1.14528
				1.12708
				1.22763
				1.31858
				1.32626
				1.3333
				1.04699
				1.33034
				1.24723
				1.16082
				1.23747
				1.12566
				1.03796
				1.29475
				1.28472
				1.30733
				1.0534
				1.30927
				1.14364
				1.0681
				1.19228
				1.24781
				0.962669
				1.1383
				1.20977
				1.07058
				0.99068
				0.970421
				1.05115
				1.29981
				1.13375
				1.27378
				1.2729
				0.906759
				1.28564
				0.997423
				1.07115
				1.28607
				1.19104
				0.949536
				0.916934
				1.15953
				1.22949
				0.995597
				1.00193
				1.21009
				1.08523
				1.07008
				0.866358
				1.14184
				1.27276
				0.940813
				1.01443
				0.918874
				0.878329
				1.26333
				1.24519
				1.25069
				0.838658
				0.955347
				0.850494
				1.26021
				0.873205
				0.924435
				1.15825
				0.894035
				1.21813
				1.01854
				0.8193
				1.08192
				0.898463
				1.08035
				0.949248
				1.18931
				0.971969
				1.01764
				1.26051
				1.13172
				0.805314
				1.26169
				0.853144
				0.831683
				1.23138
				0.898912
				1.23234
				1.24432
				1.15786
				0.867634
				0.78997
				0.939129
				1.20751
				1.23497
				1.02183
				1.18463
				1.24395
				1.0788
				0.836109
				0.815351
				0.907197
				1.08766
				0.964831
				0.976253
				0.876855
				1.03033
				1.13393
				1.23721
				1.06756
				0.768797
				0.846241
				0.822797
				0.911826
				1.21101
				1.17369
				0.795015
				1.22439
				1.21818
				0.857174
				1.1369
				0.758186
				0.878008
				0.943821
				1.19841
				1.03137
				1.16891
				0.808932
				1.2307
				1.22081
				1.0851
				0.827346
				0.921165
				1.22373
				0.888393
				0.969552
				0.988652
				0.7785
				1.08485
				1.05444
				1.03119
				0.739497
				0.841776
				1.1244
				1.22634
				0.795396
				1.19801
				0.856898
				1.07626
				0.91596
				1.16324
				0.761824
				0.727803
				0.806109
				1.14182
				0.867786
				1.19907
				0.827532
				1.20961
				0.787982
				1.16334
				0.89068
				0.955727
				1.18292
				1.02956
				0.71349
				1.0431
				1.1085
				1.15281
				1.13723
				1.20746
				1.08004
				0.745444
				0.831116
				0.927912
				0.787968
				0.776475
				0.892047
				0.979938
				0.992023
				1.20835
				0.8127
				0.851158
				1.08828
				1.0392
				1.2013
				1.20479
				0.701176
				1.12424
				1.11371
				0.731196
				0.756963
				1.06145
				1.10162
				0.866848
				1.06881
				0.926723
				1.1833
				0.802098
				0.68969
				0.77068
				0.816161
				1.13711
				1.07767
				0.835736
				0.873853
				0.747881
				1.19209
				0.717014
				1.20014
				1.1868
				1.17004
				0.679094
				1.15143
				0.900548
				0.960414
				0.7926
				1.03636
				1.09237
				1.03022
				0.738169
				0.754441
				0.841441
				1.08341
				1.09838
				0.669594
				1.20178
				0.937152
				0.902548
				0.820285
				0.790833
				0.704258
				0.981876
				1.00059
				1.18857
				0.856723
				0.733336
				1.038
				0.776074
				1.19536
				0.661235
				1.08016
				1.04638
				1.19203
				1.0993
				0.739574
				1.05204
				0.692435
				0.72536
				1.11508
				1.17172
				0.86971
				0.808695
				0.653546
				0.930188
				1.09636
				0.760763
				1.13296
				0.776557
				0.824471
				0.720402
				0.883563
				0.839208
				0.64802
				1.05712
				1.17952
				0.681706
				0.725485
				1.08298
				0.715287
				0.750653
				0.906813
				0.797976
				1.18071
				0.642145
				1.16164
				1.17134
				1.14738
				0.969515
				1.0708
				0.672182
				0.712385
				1.03384
				1.01865
				0.757511
				0.637995
				0.851821
				1.18098
				1.07807
				0.712465
				0.742901
				0.800528
				0.710004
				0.826777
				0.909088
				0.938683
				0.633292
				1.17629
				0.989916
				1.00203
				1.03865
				0.864913
				0.781454
				1.09243
				0.663542
				0.710004
				1.10398
				1.04271
				1.03185
				0.629909
				1.08126
				0.735707
				1.17908
				0.709783
				0.700437
				1.08147
				0.626198
				1.08107
				0.742834
				0.656502
				1.14109
				0.712142
				0.885756
				1.16104
				0.625527
				0.766363
				1.1729
				1.11386
				0.728859
				0.814172
				0.939557
				0.720902
				0.784545
				0.624067
				1.07541
				0.650213
				0.827726
				1.07951
				1.17291
				0.925919
				0.622377
				0.689477
				0.846905
				1.04065
				0.97033
				0.890967
				0.723218
				0.619656
				1.11462
				0.966679
				0.728245
				0.75578
				0.616487
				0.644863
				1.01192
				0.973628
				0.61287
				1.17656
				0.979196
				1.05755
				0.609406
				1.16477
				0.986277
				0.718815
				0.605832
				0.797128
				0.994993
				0.602388
				0.679698
				0.972085
				1.01823
				0.639934
				0.767005
				1.13555
				1.15092
				1.00567
				1.16268
				0.747926
				0.715708
				1.03793
				0.857465
				0.675832
				0.635648
				0.71481
				0.833582
				0.806515
				1.0792
				0.917488
				0.670743
				0.947695
				0.892992
				0.714211
				1.17538
				1.0767
				1.00553
				1.025
				1.16828
				0.631703
				0.785004
				0.990206
				0.868512
				0.74022
				1.07936
				0.713677
				1.03701
				1.07973
				0.629409
				1.05841
				0.663544
				0.750859
				0.714554
				0.702717
				0.627864
				0.7335
				1.16163
				1.14812
				0.715478
				0.819293
				0.768965
				1.07573
				0.626117
				1.13112
				0.656632
				0.944402
				0.811344
				0.788061
				0.623726
				0.842753
				1.08002
				0.727535
				0.970363
				1.02643
				1.10785
				1.15607
				0.620698
				1.16509
				0.691713
				1.08695
				0.966895
				0.897925
				0.853589
				0.651142
				1.07433
				0.61722
				0.737438
				1.04138
				0.972436
				0.613649
				0.760587
				1.02005
				0.977829
				0.723059
				0.610057
				0.984016
				0.606595
				0.991948
				1.1144
				0.802867
				0.599346
				1.15814
				0.904996
				1.0018
				0.645608
				1.01338
				0.989881
				0.681662
				1.0689
				0.719661
				1.05305
				1.15436
				1.07159
				0.641214
				0.770384
				0.750136
				0.722759
				0.718018
				1.13317
				1.03354
				1.14083
				1.14731
				0.811733
				1.15133
				1.1569
				0.636851
				0.839562
				0.673537
				0.92429
				0.951954
				0.90274
				0.790204
				1.07303
				0.717103
				0.87524
				1.07269
				0.63474
				0.996416
				1.06356
				0.717874
				1.04054
				1.04211
				0.847113
				0.632325
				0.711584
				0.665305
				0.743753
				0.718621
				0.754175
				0.630201
				0.736212
				1.07851
				0.775582
				0.812799
				0.627442
				0.818548
				0.994237
				0.971024
				0.6592
				0.954393
				0.801675
				0.62432
				1.07592
				0.969774
				1.15379
				0.62077
				0.699397
				0.731073
				1.15419
				0.974749
				0.617239
				1.02167
				0.858871
				0.979959
				0.613581
				0.652645
				0.986075
				0.610137
				1.10497
				0.765664
				0.90142
				1.06772
				0.994086
				0.740079
				1.02732
				0.909463
				0.603027
				1.00379
				1.01508
				1.0604
				1.14946
				1.08496
				0.726346
				1.14898
				1.12871
				1.10858
				0.647823
				0.690049
				0.806517
				1.02802
				0.723939
				1.14001
				1.1285
				0.755837
				1.15478
				0.775392
				0.642689
				1.05209
				0.721642
				0.725465
				0.680892
				1.06425
				0.842831
				0.640274
				1.03572
				0.928096
				0.721991
				0.748444
				0.793092
				1.1518
				1.1442
				0.960806
				0.910097
				0.636654
				1.13891
				0.880768
				0.721637
				0.673006
				0.99572
				1.07232
				0.634097
				0.857209
				0.805484
				0.767044
				0.714073
				1.06745
				0.726497
				1.03643
				0.74163
				1.06187
				0.631149
				1.03579
				0.923339
				0.665865
				0.628172
				0.780364
				0.828283
				0.966928
				1.07383
				0.624744
				0.735645
				1.06841
				1.06753
				0.974968
				0.621333
				1.00217
				1.06685
				1.05467
				1.02034
				0.958043
				0.978557
				0.701685
				0.659471
				0.61763
				0.983608
				1.0248
				0.614138
				1.14059
				0.990424
				0.61069
				1.13806
				0.999761
				0.861619
				0.744937
				0.731413
				0.914508
				1.02228
				1.01021
				0.679502
				1.06895
				0.768148
				0.653776
				0.809973
				0.728204
				1.09786
				0.693197
				1.06006
				0.648889
				1.06762
				1.11878
				1.10082
				1.13619
				1.14182
				1.13801
				0.75947
				0.726167
				1.03585
				0.737453
				1.13131
				0.646079
				1.05457
				1.12544
				0.682745
				0.725783
				1.11902
				1.13557
				0.642274
				0.802928
				0.771146
				0.751403
				0.725317
				0.884734
				0.638664
				1.12958
				0.921771
				1.02813
				0.732595
				0.963202
				0.675885
				0.830587
				0.635513
				0.719402
				0.815392
				1.05712
				0.920862
				0.997433
				0.865274
				0.631888
				0.745308
				0.971132
				0.917472
				0.784174
				1.06973
				1.06357
				0.628696
				1.03731
				1.05095
				0.667368
				0.978273
				0.624971
				0.980775
				1.13465
				0.621628
				0.985879
				0.739143
				1.03021
				0.61783
				0.712986
				0.992424
				1.05371
				0.614553
				0.967231
				1.00247
				0.680876
				1.01173
				1.02308
				1.02504
				0.66195
				1.00385
				0.874079
				0.777592
				0.73586
				1.0662
				0.655337
				1.13729
				1.06635
				0.699049
				0.731937
				1.13146
				0.741589
				1.0392
				0.65289
				0.763093
				1.09272
				1.03803
				1.04937
				0.731199
				0.806719
				0.647729
				0.693234
				1.05798
				1.05224
				1.07148
				0.729489
				1.13495
				1.12627
				1.12657
				0.644011
				0.759367
				1.06041
				1.1191
				0.781579
				1.13098
				1.09116
				1.10856
				0.726411
				1.11015
				1.11824
				1.05513
				0.639484
				0.681757
				0.810262
				0.839069
				0.636176
				0.748923
				1.0494
				0.927915
				0.942219
				1.12381
				1.02933
				0.98081
				0.632336
				0.676731
				0.979992
				0.629303
				0.926723
				0.821215
				0.717675
				0.878611
				0.981351
				1.06288
				0.625419
				0.74652
				0.876003
				0.983397
				1.02029
				0.622231
				1.06231
				1.02068
				0.988519
				1.12088
				0.618329
				0.936723
				0.997659
				0.781292
				0.667526
				0.606861
				1.00801
				1.01832
				1.05058
				0.739475
				0.970632
				1.0484
				0.663709
				1.0296
				1.03391
				0.73834
				1.12227
				0.658716
				1.05799
				0.752385
				1.11707
				0.984011
				0.734713
				1.05584
				1.05881
				0.655116
				0.813847
				1.06546
				0.734725
				0.763717
				0.648629
				1.11984
				1.085
				0.732919
				0.69753
				1.04922
				1.11654
				0.645569
				1.04394
				0.804325
				0.639816
				1.02227
				1.05734
				1.12075
				1.1214
				0.945008
				1.05578
				0.786969
				1.11177
				1.0849
				0.637384
				1.10187
				0.983881
				0.680523
				1.10597
				0.632664
				1.10031
				0.98354
				1.04739
				0.630333
				0.846716
				0.752029
				0.984829
				0.728397
				1.02108
				0.625664
				0.943266
				0.991272
				1.11076
				0.623332
				0.926873
				0.998219
				0.613305
				1.02024
				1.01027
				1.0248
				0.788872
				0.830687
				0.887733
				0.932438
				0.882967
				0.669341
				1.04673
				1.05657
				1.0414
				0.7445
				1.03346
				1.02706
				0.983962
				1.11978
				1.06141
				1.10914
				0.707923
				0.992321
				0.65774
				1.04815
				0.75864
				0.740837
				1.04899
				0.771084
				1.05733
				1.1114
				1.0452
				1.0562
				0.819505
				0.64686
				1.02874
				0.859483
				1.11657
				1.0803
				1.04057
				1.11269
				1.06199
				0.638614
				0.690471
				0.988851
				1.04272
				0.796678
				0.631542
				0.759014
				1.04903
				1.10517
				0.986523
				0.997117
				0.94983
				0.622669
				0.999633
				0.766484
				0.853663
				1.07696
				1.01032
				1.10109
				1.05668
				1.09444
				0.733798
				1.09966
				1.09099
				1.02863
				1.04686
				1.10568
				0.678458
				1.02462
				0.795249
				0.987608
				1.04916
				0.835388
				0.750898
				1.02936
				0.896147
				0.894328
				0.943086
				1.05496
				0.665708
				1.10668
				1.0419
				1.04144
				0.746813
				1.03887
				1.1051
				1.10177
				0.994119
				0.712425
				0.768612
				1.04615
				1.09811
				0.653864
				0.779108
				0.867609
				0.82584
				1.04887
				1.10231
				0.64457
				1.1003
				1.02734
				1.04809
				0.99061
				0.636816
				1.04674
				0.989072
				1.00711
				0.697013
				0.627857
				1.04096
				1.07255
				0.820281
				1.05936
				1.03651
				0.768052
				0.803154
				0.743821
				0.965132
				1.04801
				0.859233
				1.07097
				1.03755
				1.00133
				1.10026
				1.01284
				1.08659
				0.681328
				0.802098
				1.09484
				1.08863
				1.0946
				0.759661
				1.08434
				1.04032
				0.846145
				1.01202
				1.10143
				0.901905
				0.998379
				0.902339
				0.666946
				0.947291
				0.773156
				1.02604
				1.04305
				0.722616
				1.0341
				1.05473
				1.03893
				1.04166
				1.04912
				1.10229
				0.655029
				0.785862
				1.09183
				0.774232
				0.946366
				1.09242
				1.0931
				0.645721
				0.831933
				0.98884
				1.04547
				1.05443
				1.09994
				1.0968
				0.638514
				1.04476
				0.993234
				0.707122
				1.04776
				1.03513
				0.733744
				1.00991
				0.774474
				1.03695
				1.03427
				1.06756
				0.812898
				0.967566
				1.04689
				1.04114
				0.690412
				0.748841
				0.86622
				0.765497
				1.00698
				1.08783
				1.04667
				1.04157
				0.810226
				1.06368
				1.00005
				1.08344
				1.08985
				1.07977
				0.675055
				1.08541
				0.853113
				1.07597
				1.08937
				0.780846
				0.917578
				0.906247
				1.04226
				1.02606
				0.662304
				0.955721
				0.729958
				0.945371
				1.0897
				0.784341
				1.03433
				0.795297
				0.651956
				0.989636
				1.03919
				1.08174
				1.08905
				0.643661
				0.838567
				1.08816
				0.75991
				1.08924
				1.08775
				1.04129
				0.994026
				0.709889
				1.03423
				0.783807
				1.00784
				1.02819
				1.04123
				0.98874
				1.03409
				0.818951
				1.05188
				1.03451
				1.03857
				0.759081
				1.05884
				1.046
				0.691559
				0.773925
				0.872067
				0.816805
				1.0316
				1.04
				0.676324
				1.00353
				1.05814
				0.863222
				1.08019
				1.08399
				0.865684
				1.07379
				0.924171
				1.07258
				0.914128
				1.08016
				0.740129
				0.663598
				1.07039
				0.97448
				0.957496
				0.801764
				1.08812
				1.03115
				0.654072
				1.07695
				0.989259
				0.789792
				1.01974
				1.02703
				0.64264
				0.968371
				1.03694
				1.03255
				0.991647
				1.04558
				1.03392
				0.84712
				1.08631
				1.07768
				0.719767
				1.08321
				0.998502
				1.07646
				0.789905
				1.0379
				1.05467
				1.04079
				1.04853
				0.700828
				0.828293
				1.04023
				0.781234
				0.767408
				1.02755
				1.02751
				1.03111
				0.879659
				0.826409
				0.68498
				1.03461
				1.03119
				0.868475
				0.671412
				1.00065
				1.03458
				1.0725
				0.870066
				1.07523
				0.931864
				0.973234
				1.03928
				1.05162
				1.01834
				1.06957
				1.07646
				0.660944
				0.743071
				1.06577
				0.917504
				1.07836
				0.648006
				0.986
				0.811821
				1.06298
				1.0718
				0.966187
				0.799576
				1.00168
				0.961534
				0.974574
				0.998077
				1.02442
				1.03425
				1.07578
				1.02697
				0.853914
				1.07405
				1.02736
				1.03459
				0.721176
				1.06749
				1.07315
				0.79639
				1.073
				1.04476
				0.702464
				0.776028
				1.03096
				0.8335
				0.814833
				0.831747
				1.03436
				1.02249
				0.887231
				0.686699
				1.02762
				0.942799
				1.02618
				1.03252
				1.03308
				1.01396
				1.04112
				0.67407
				1.04645
				0.877748
				0.75151
				0.662695
				0.984649
				1.07307
				1.03284
				1.06657
				0.76849
				1.00887
				0.817295
				0.934782
				1.06096
				1.06925
				0.925833
				1.06752
				1.05921
				0.967269
				1.0025
				0.808753
				1.07519
				1.05806
				1.03816
				1.06688
				0.730904
				0.863949
				0.980738
				0.802079
				1.07092
				1.02694
				1.03319
				1.02135
				1.02526
				1.06418
				1.02022
				1.01183
				0.710815
				1.02643
				1.04076
				0.823266
				1.06383
				1.06307
				0.841175
				0.778796
				1.02781
				0.695726
				1.0212
				1.03304
				0.940719
				0.840436
				0.894228
				0.681503
				1.00783
				1.02125
				1.03324
				0.669746
				1.06393
				0.984899
				0.762313
				1.04011
				1.0275
				0.880492
				0.753347
				0.825172
				1.0402
				0.942457
				1.05961
				0.929551
				0.980472
				1.06505
				1.02712
				1.05733
				0.813803
				1.06534
				1.0635
				1.06407
				1.01455
				1.03222
				1.05169
				0.869081
				0.733095
				0.978382
				1.06131
				0.807499
				1.05134
				1.05948
				1.02862
				1.02658
				1.02806
				1.05541
				1.02122
				0.713084
				1.03222
				0.880909
				1.02406
				1.01933
				0.780863
				0.850917
				0.69907
				0.842677
				0.955571
				1.06303
				1.06048
				1.01569
				0.901093
				0.683583
				1.01816
				1.05521
				0.665154
				0.996294
				1.03515
				0.767
				0.941042
				1.02119
				1.02785
				0.88917
				1.0255
				0.83709
				0.981986
				1.01153
				1.02649
				1.02399
				1.0342
				0.936705
				0.942716
				0.814034
				0.73688
				1.057
				1.06293
				1.04972
				1.04532
				1.05495
				0.812347
				0.872071
				1.03058
				0.978843
				1.05593
				1.02702
				1.0582
				0.72648
				1.04628
				0.877525
				1.02584
				1.05419
				1.01595
				1.05259
				0.70455
				0.853257
				0.95477
				1.05398
				1.02849
				1.01547
				0.696132
				0.995241
				1.01953
				1.01853
				0.770275
				1.01325
				0.904191
				0.673608
				1.02006
				1.05168
				1.05333
				0.842182
				1.01519
				0.99628
				0.890463
				0.879245
				1.01677
				1.0113
				1.0328
				0.985296
				1.02689
				0.959302
				0.829717
				0.936663
				1.02598
				1.05248
				1.05302
				1.04885
				0.887827
				1.03656
				0.731265
				1.04646
				0.893427
				1.02253
				1.04994
				1.02604
				1.05254
				1.01736
				1.02192
				1.04059
				1.02297
				0.700995
				1.04519
				1.00592
				1.04801
				1.02148
				0.976823
				1.01611
				0.784326
				1.02831
				0.855319
				0.960365
				0.835232
				0.995887
				0.905047
				1.05258
				1.0113
				1.0197
				1.0496
				1.04498
				1.02781
				0.906037
				0.894232
				1.0131
				1.02422
				1.00948
				1.03486
				1.01176
				1.01655
				0.944185
				0.982344
				1.02257
				0.744814
				1.01832
				1.04452
				0.900436
				1.05052
				1.0466
				1.02515
				1.04016
				0.715948
				1.04745
				0.978145
				1.01927
				1.00527
				1.01672
				1.01382
				1.04572
				1.03668
				1.01939
				1.02173
				1.0439
				1.04281
				1.0108
				1.044
				0.789798
				1.02536
				0.978423
				0.87923
				1.04428
				1.01593
				0.845556
				1.00889
				1.04233
				1.02146
				0.911797
				1.01601
				1.01025
				0.902434
				1.02506
				0.906271
				1.02627
				1.00966
				1.04361
				1.01061
				1.0342
				1.01134
				0.946448
				0.995993
				0.750538
				1.04289
				0.940927
				1.02213
				1.04001
				0.994056
				1.04269
				0.738627
				1.03726
				0.978341
				1.04068
				1.02197
				1.01408
				1.01293
				1.01349
				1.00669
				1.04289
				1.01768
				1.03687
				0.799261
				1.02161
				1.03707
				0.887525
				1.01106
				1.03219
				0.995388
				1.00624
				1.01466
				1.03901
				1.01833
				1.04268
				1.02286
				0.849905
				1.0405
				0.916028
				0.910149
				0.760747
				0.973206
				1.00461
				0.941586
				1.02135
				0.992907
				1.03698
				1.01247
				1.03039
				1.01473
				0.950449
				1.04114
				1.01583
				0.998039
				1.01779
				1.0382
				0.746861
				0.961983
				1.01465
				1.0209
				1.03709
				1.01137
				1.03868
				1.03209
				1.03637
				1.01072
				1.00666
				1.00702
				0.803971
				1.01029
				1.02067
				1.03458
				1.0372
				1.01718
				0.916774
				1.0058
				1.02868
				1.03624
				0.980054
				1.0115
				1.0359
				1.02153
				1.03563
				1.01119
				0.8557
				1.03435
				1.01905
				0.770815
				0.917743
				0.970847
				0.911277
				1.0278
				0.963281
				1.00314
				1.00634
				1.00537
				0.948067
				1.03493
				0.9975
				1.00923
				1.00947
				1.03567
				1.03334
				0.783858
				1.01073
				1.01498
				1.01736
				0.96597
				1.03147
				1.03309
				1.03504
				1.01687
				1.02946
				0.809175
				0.921586
				0.982917
				1.0025
				1.02964
				1.00457
				1.01891
				1.03491
				1.0136
				1.00688
				0.970381
				1.03083
				1.025
				0.775608
				1.01071
				0.857698
				1.03477
				1.03332
				1.0317
				0.983185
				1.00767
				0.928845
				0.917514
				1.01587
				1.00148
				1.02473
				1.00194
				0.959612
				0.986487
				1.00757
				1.03352
				0.995222
				1.0305
				0.791804
				1.02958
				1.0078
				1.01123
				0.957966
				1.03097
				1.00187
				1.01251
				1.0133
				1.01649
				1.0136
				1.03057
				1.03155
				1.02952
				0.813724
				1.0007
				1.02505
				0.94839
				1.01687
				1.00268
				1.02739
				0.98818
				1.00318
				1.0303
				1.01317
				0.984716
				0.864281
				1.02927
				1.02224
				1.02774
				1.00487
				0.936896
				1.00732
				0.963183
				1.02909
				0.809548
				0.91565
				1.00658
				1.00454
				0.996777
				1.02869
				1.02856
				1.01471
				1.00382
				1.02334
				1.02558
				1.00254
				0.962289
				1.02737
				0.965976
				1.00431
				1.01314
				0.820226
				0.951409
				1.02711
				1.02889
				1.00137
				1.01291
				1.01326
				1.01278
				1.02289
				1.0258
				1.01448
				0.987643
				1.0231
				0.999228
				1.00013
				1.02838
				1.00419
				1.00973
				0.989298
				0.86537
				1.00433
				1.0283
				0.949893
				1.01907
				0.967894
				1.00155
				1.00528
				0.990525
				0.924621
				0.964966
				1.02581
				1.00788
				0.832625
				1.02483
				1.02358
				1.02753
				1.01199
				1.00525
				1.00423
				1.00025
				1.02383
				1.02093
				0.960977
				1.01164
				0.972025
				1.02287
				1.0244
				1.00196
				1.02572
				1.01228
				1.01015
				1.00083
				1.01276
				1.01332
				1.01925
				0.997303
				1.02132
				0.997334
				0.874387
				1.00216
				0.846601
				1.02465
				0.954679
				0.992888
				1.02364
				0.986917
				1.0096
				1.00364
				1.00187
				1.01668
				1.00014
				1.00025
				1.00756
				0.925144
				0.972485
				0.97072
				1.02086
				1.02368
				1.0051
				1.02384
				0.994859
				0.972762
				1.0227
				1.00086
				1.00264
				1.02168
				1.01026
				1.01914
				1.01084
				1.02024
				1.02203
				0.939543
				1.02044
				1.02342
				1.00984
				0.997426
				1.0109
				1.01031
				1.00995
				1.0174
				0.996182
				1.01784
				0.881
				1.00253
				0.967322
				1.02309
				0.998382
				1.00461
				1.02321
				0.971737
				1.00677
				0.98591
				0.995401
				1.00628
				0.993964
				0.93474
				0.975238
				0.999031
				1.0141
				0.998972
				0.999611
				1.02253
				1.02097
				1.02045
				0.986813
				1.01909
				1.00964
				0.996515
				0.934814
				1.0094
				1.00132
				1.01786
				1.00759
				1.01691
				1.01808
				1.00963
				1.02086
				1.01848
				1.0202
				0.889429
				1.0103
				1.00747
				1.00162
				1.01456
				0.970425
				1.01634
				1.00113
				1.01968
				1.01994
				0.974886
				0.981652
				0.994299
				0.996172
				1.00311
				0.998442
				1.0071
				0.999482
				0.93847
				1.00667
				0.995499
				1.01205
				0.978872
				0.99946
				1.01954
				1.01785
				0.986746
				1.01928
				1.01588
				1.00821
				1.00011
				1.01587
				0.912486
				0.935159
				0.993442
				1.00699
				0.913947
				1.01964
				1.00633
				1.01771
				1.01547
				1.00899
				1.0076
				1.01657
				1.01571
				1.00065
				0.981237
				1.00752
				1.01302
				1.01357
				1.00119
				0.993644
				1.00045
				1.01874
				0.972365
				0.996522
				0.981038
				1.00562
				1.01833
				0.981914
				0.996681
				0.994472
				1.00472
				0.944275
				0.998829
				1.0163
				1.01013
				0.998012
				1.00731
				0.996221
				1.01706
				1.01458
				0.999561
				1.01395
				1.00707
				0.926965
				0.994189
				1.01631
				0.946003
				1.0081
				1.00741
				0.922686
				1.00408
				1.01684
				1.01362
				0.982861
				1.01386
				1.01421
				1.00563
				1.00333
				1.01085
				1.00501
				0.988266
				1.01236
				0.999781
				0.999718
				0.994927
				0.996378
				0.976062
				1.01614
				0.980645
				1.01523
				0.997416
				0.985902
				0.943852
				0.996136
				1.01398
				0.995442
				1.0051
				1.00845
				0.995907
				0.998304
				1.01571
				1.0068
				1.01211
				0.999078
				0.940584
				1.0154
				1.01229
				1.00529
				0.992086
				1.01416
				1.00344
				1.00575
				1.01258
				0.990903
				1.01267
				1.01214
				1.00449
				0.986306
				0.999486
				1.00567
				1.00185
				1.0096
				0.947553
				1.01025
				0.993878
				0.999523
				1.01521
				0.995448
				0.988159
				0.981453
				0.976056
				0.943231
				0.997273
				1.01441
				1.01279
				0.995979
				0.996182
				1.00371
				1.00036
				1.00711
				0.997843
				1.00657
				1.01393
				1.00551
				1.01109
				1.01086
				0.99906
				1.01276
				1.00567
				0.993031
				1.01352
				1.00164
				0.991585
				0.961237
				1.01105
				1.01094
				1.01065
				0.998692
				1.00236
				1.00431
				0.95349
				0.993223
				1.00465
				1.00928
				1.00799
				0.98129
				0.999071
				0.991913
				0.979057
				1.01309
				0.995585
				0.997465
				1.01176
				0.96558
				1.01092
				0.997443
				0.995708
				0.999744
				1.00574
				1.00395
				0.998083
				1.00528
				1.01282
				1.00923
				1.01187
				0.99875
				1.00431
				1.00957
				1.01138
				0.991416
				0.966607
				0.957929
				1.00445
				1.00137
				0.996396
				0.997367
				1.01032
				0.993407
				1.00168
				1.00402
				1.00945
				1.0097
				1.00771
				1.00434
				1.00698
				0.99336
				0.999123
				0.997516
				1.01231
				0.987165
				0.978156
				1.00994
				1.01138
				0.994501
				0.965369
				0.997925
				1.00497
				1.00277
				1.00169
				0.996376
				0.998005
				1.00483
				1.00459
				0.96719
				1.00859
				1.00995
				1.01138
				1.00842
				0.998841
				1.01085
				1.00432
				0.992068
				0.965006
				0.996485
				1.00046
				0.999852
				0.996669
				1.00904
				0.979496
				0.994957
				1.00846
				0.996184
				1.00821
				1.00329
				1.00393
				1.00693
				1.00583
				0.998875
				0.997829
				0.9862
				1.0106
				1.00968
				1.00863
				0.998859
				1.00268
				0.975539
				0.995388
				0.969563
				1.00136
				1.00413
				1.00371
				0.996044
				0.998188
				1.00384
				1.00916
				1.00707
				1.01051
				0.996513
				0.998694
				1.00749
				1.00916
				0.969099
				0.999207
				0.990375
				1.00344
				1.00861
				0.999403
				0.999853
				0.994204
				0.978171
				0.997028
				1.0036
				1.00582
				1.00736
				1.00329
				1.00746
				1.00903
				1.00501
				0.997365
				0.998891
				1.01003
				1.00801
				0.999287
				1.00921
				1.00187
				0.990556
				1.00395
				1.00399
				0.994877
				0.976212
				0.973392
				1.0023
				0.997892
				1.00316
				0.996543
				0.991115
				1.00672
				1.00643
				1.00938
				1.0088
				1.00005
				0.998448
				1.00338
				1.00795
				0.979941
				0.999476
				0.998403
				1.00789
				0.995779
				0.999022
				0.996736
				1.0034
				1.00658
				1.00251
				1.00637
				1.00521
				0.997768
				1.00428
				0.998286
				1.00008
				1.00775
				1.00865
				1.00776
				1.00678
				0.990335
				1.00555
				1.00289
				1.00333
				1.00205
				0.995712
				1.00205
				0.984217
				0.995267
				0.975169
				0.989901
				1.00227
				1.00544
				1.00874
				1.00587
				0.998115
				1.00749
				1.00766
				0.999646
				0.995455
				0.980945
				1.00271
				0.998926
				1.00098
				0.998414
				1.00756
				0.997463
				1.0032
				0.999521
				1.00443
				0.997364
				1.00577
				1.00255
				1.00577
				1.00367
				1.00075
				1.00821
				0.998401
				1.00753
				1.00624
				1.00352
				0.990612
				0.993672
				1.00322
				1.00559
				0.995629
				0.998107
				1.00147
				1.0025
				0.984417
				1.00631
				0.995263
				1.00218
				0.981367
				1.00534
				1.0072
				1.00493
				1.00779
				0.998001
				0.982602
				1.0027
				0.998376
				1.00032
				1.00099
				0.998624
				0.99708
				1.00706
				1.00072
				1.00299
				0.998194
				1.00514
				1.00196
				1.00138
				1.00395
				1.00496
				1.00633
				1.00319
				0.99886
				1.0071
				1.00538
				0.989304
				0.993454
				0.994922
				1.0034
				0.995848
				1.00557
				1.00276
				0.997461
				1.00234
				1.0059
				1.00162
				1.0016
				0.989553
				0.996037
				1.00421
				1.00464
				1.00732
				0.982176
				1.00604
				0.998456
				0.984452
				1.00219
				1.00186
				0.999999
				0.99701
				0.999268
				1.00275
				0.997993
				1.00657
				1.00101
				1.00184
				1.00587
				0.990179
				1.0034
				0.998631
				1.00454
				1.00201
				1.00449
				1.00272
				1.00679
				1.00508
				1.00603
				1.00363
				0.995242
				1.00269
				0.995333
				0.998233
				1.00526
				0.996236
				1.00115
				0.989381
				1.00422
				1.00153
				1.00586
				0.996269
				1.00255
				1.00506
				1.00381
				1.00652
				0.985753
				0.986893
				0.998315
				1.0022
				1.00187
				1.00039
				0.998702
				0.997483
				0.989494
				1.00615
				1.00172
				0.998291
				1.00212
				0.994303
				1.00404
				0.999234
				1.00154
				1.00302
				1.0039
				1.00505
				1.00507
				1.00584
				1.00351
				1.00241
				1.00428
				0.99496
				1.00511
				0.998166
				1.00232
				0.995583
				1.00126
				0.992115
				1.00106
				1.00368
				1.0025
				1.00494
				0.988135
				1.0033
				1.00616
				1.00498
				0.998855
				0.99804
				0.987239
				0.99904
				1.0018
				1.00214
				0.991073
				0.997272
				0.99984
				1.00232
				1.00177
				1.00566
				0.994497
				0.997705
				1.00265
				0.998943
				1.00361
				1.0016
				1.00361
				1.00352
				1.00495
				1.00559
				1.00204
				1.004
				1.0048
				1.00231
				0.995938
				0.997249
				0.996569
				1.00407
				1.00083
				1.00339
				1.00483
				0.991691
				1.0011
				1.00545
				1.00298
				0.989321
				0.999944
				0.998618
				0.998684
				1.00233
				1.00185