<VTKFile type="UnstructuredGrid" version="0.1" byte_order="LittleEndian">
<UnstructuredGrid>
	<Piece NumberOfPoints="1485" NumberOfCells="2857">
		<CellData Scalars="density" Vectors="velocity">
			<DataArray type="Float64" Name="density" Format="ascii">
				1.40452
				1.37596
				1.35584
				1.25688
				1.31327
				1.32687
				1.35401
				1.21072
				1.18187
				1.12961
				1.12261
				1.2125
				1.32897
				1.31691
				1.3253
				1.02355
				1.32413
				1.25577
				1.17319
				1.22525
				1.11195
				1.01827
				1.28942
				1.2723
				1.30114
				1.04824
				1.30199
				1.13648
				1.06033
				1.18592
				1.23859
				0.953337
				1.12792
				1.1921
				1.04388
				0.986425
				0.952736
				1.04008
				1.29064
				1.11618
				1.26268
				1.26761
				0.896029
				1.2746
				0.993614
				1.06737
				1.27508
				1.17278
				0.945237
				0.899415
				1.15681
				1.22329
				0.984575
				0.983206
				1.19746
				1.06908
				1.05324
				0.857398
				1.13181
				1.26646
				0.935476
				1.00986
				0.912
				0.86192
				1.25526
				1.22951
				1.23711
				0.833635
				0.943959
				0.836077
				1.25418
				0.863773
				0.91162
				1.14142
				0.885226
				1.21243
				1.01045
				0.811225
				1.07342
				0.894503
				1.05135
				0.928023
				1.17067
				0.965971
				1.00072
				1.25095
				1.11253
				0.793007
				1.25206
				0.846101
				0.81337
				1.22067
				0.885053
				1.22592
				1.23242
				1.15149
				0.862566
				0.774415
				0.930416
				1.19813
				1.2298
				0.998194
				1.17292
				1.2337
				1.0588
				0.829392
				0.793269
				0.890032
				1.07335
				0.954726
				0.958966
				0.86431
				1.02079
				1.12399
				1.23131
				1.10812
				0.758973
				0.834894
				0.813087
				0.901953
				1.19589
				1.16371
				0.775154
				1.21653
				1.20847
				0.846132
				1.12465
				0.747487
				0.859239
				0.925119
				1.19248
				1.02198
				1.15172
				0.799153
				1.22205
				1.21586
				1.07452
				0.811668
				0.913395
				1.21483
				0.880045
				0.945292
				0.977583
				0.761068
				1.06105
				1.0851
				1.01025
				0.733004
				0.828672
				1.10649
				1.21689
				0.78851
				1.18797
				0.831715
				1.10426
				0.898169
				1.15159
				0.747513
				0.721776
				0.792146
				1.13483
				0.860317
				1.19422
				0.812906
				1.19807
				0.776822
				1.15276
				0.878133
				0.941732
				1.17406
				1.00803
				0.706646
				1.07169
				1.12717
				1.15507
				1.1533
				1.20309
				1.05982
				0.734353
				0.809854
				0.907062
				0.776274
				0.761981
				0.877347
				0.968985
				0.970273
				1.19854
				0.800539
				0.841951
				1.07435
				1.02671
				1.19706
				1.19927
				0.696353
				1.1152
				1.12816
				0.720844
				0.750234
				1.07994
				1.10825
				0.849329
				1.09022
				0.914822
				1.16929
				0.789187
				0.684057
				0.760889
				0.792262
				1.12076
				1.09172
				0.825382
				0.857601
				0.742957
				1.18426
				0.707747
				1.19219
				1.17549
				1.16344
				0.675485
				1.13468
				0.875943
				0.935795
				0.775208
				1.02597
				1.11347
				1.05935
				0.733607
				0.746831
				0.826732
				1.07213
				1.11124
				0.665758
				1.19372
				0.928942
				0.892809
				0.811414
				0.774269
				0.695997
				0.957885
				0.98523
				1.18399
				0.839335
				0.728425
				1.01588
				0.761303
				1.18628
				0.659367
				1.05765
				1.06532
				1.18359
				1.10215
				0.731667
				1.07767
				0.685196
				0.720534
				1.09858
				1.16179
				0.842593
				0.798329
				0.651721
				0.911547
				1.09965
				0.751571
				1.12535
				0.760966
				0.808189
				0.715759
				0.871725
				0.824104
				0.645688
				1.0737
				1.17627
				0.67564
				0.719002
				1.09559
				0.709908
				0.742934
				0.88595
				0.78419
				1.1704
				0.639199
				1.15169
				1.16585
				1.13995
				0.952399
				1.0955
				0.667312
				0.706241
				1.01249
				1.04582
				0.743829
				0.634978
				0.827129
				1.17729
				1.05811
				0.705801
				0.735368
				0.789169
				0.701735
				0.810091
				0.890068
				0.916523
				0.630708
				1.17104
				0.977633
				0.979123
				1.06522
				0.853303
				0.770607
				1.09856
				0.659887
				0.699448
				1.11529
				1.02967
				1.05229
				0.627242
				1.09852
				0.728496
				1.17041
				0.695314
				0.695261
				1.07008
				0.623486
				1.09357
				0.731822
				0.652784
				1.13038
				0.691725
				0.867243
				1.1491
				0.621901
				0.760019
				1.16892
				1.1053
				0.721896
				0.795344
				0.928053
				0.688228
				0.774002
				0.620247
				1.08366
				0.646244
				0.803962
				1.10493
				1.16553
				0.779626
				0.617516
				0.684474
				0.837234
				1.05906
				1.01118
				0.868957
				0.716285
				0.614377
				1.10331
				1.00804
				0.716697
				0.750412
				0.609551
				0.6407
				1.03507
				1.00628
				0.603678
				1.16964
				1.00902
				1.08482
				0.601068
				1.15669
				1.01436
				0.711317
				0.600049
				0.781857
				1.02126
				0.599402
				0.676219
				0.946291
				1.04027
				0.636186
				0.756681
				1.12173
				1.14518
				1.02987
				1.15453
				0.742793
				0.706986
				1.02676
				0.839015
				0.797001
				0.632132
				0.706036
				0.820086
				0.788671
				1.06691
				0.904753
				0.667464
				0.933276
				0.864915
				0.703454
				1.16785
				1.08253
				0.985349
				1.0531
				1.15998
				0.62834
				0.770091
				0.965608
				0.851769
				0.734801
				1.0904
				0.700001
				1.0166
				1.09267
				0.625629
				1.07589
				0.66043
				0.743437
				0.695949
				0.693781
				0.623768
				0.728482
				1.15741
				1.13681
				0.69224
				0.804456
				0.758166
				1.05681
				0.6213
				1.11946
				0.653175
				0.923693
				0.688898
				0.769271
				0.618177
				0.830484
				1.08878
				0.721979
				0.957504
				1.04666
				1.09095
				1.15287
				0.614016
				1.15725
				0.685177
				1.09974
				1.01223
				0.882863
				0.834462
				0.647683
				1.08298
				0.608747
				0.728433
				1.06931
				1.00662
				0.604598
				0.751127
				1.04108
				1.00805
				0.716966
				0.602781
				1.0124
				0.601864
				1.01849
				1.10787
				0.791803
				0.60004
				1.1551
				1.01048
				1.02641
				0.642223
				1.03588
				0.969855
				0.67525
				1.08678
				0.711968
				1.07542
				1.14677
				1.08602
				0.637947
				0.755505
				0.741299
				0.716467
				0.70824
				1.12601
				1.01333
				1.13436
				1.14291
				0.800392
				1.14698
				1.15323
				0.633763
				0.816437
				0.667869
				0.903676
				0.921876
				0.886962
				0.779629
				1.09675
				0.703942
				0.865236
				1.0529
				0.631023
				0.981992
				1.07363
				0.700173
				1.02488
				1.06064
				0.823823
				0.628187
				0.704213
				0.659985
				0.735487
				0.695784
				0.739629
				0.62532
				0.72772
				1.08538
				0.767004
				0.688837
				0.622012
				0.801174
				0.967336
				0.962107
				0.654098
				0.94289
				0.793957
				0.617561
				1.06489
				1.01388
				1.14617
				0.612822
				0.694304
				0.722665
				1.14738
				1.00915
				0.609805
				1.04227
				0.847291
				1.01028
				0.607182
				0.647757
				1.01419
				0.605169
				1.09418
				0.758823
				0.877281
				1.08125
				1.02023
				0.727147
				1.05516
				1.01454
				0.602144
				1.02818
				1.03706
				1.07181
				1.14246
				1.09273
				0.716648
				1.1456
				1.11622
				1.09485
				0.642928
				0.684132
				0.79116
				1.04792
				0.712941
				1.13432
				1.12274
				0.748815
				1.14766
				0.76807
				0.638283
				1.0675
				0.707819
				0.713501
				0.675488
				1.07299
				0.823429
				0.635244
				1.0249
				0.912056
				0.704279
				0.74217
				0.775998
				1.14467
				1.13611
				0.943112
				0.883005
				0.631623
				1.131
				0.863861
				0.699982
				0.667828
				0.971756
				1.06032
				0.628423
				0.84733
				0.786731
				0.76223
				0.703274
				1.08574
				0.693658
				1.01447
				0.734421
				1.07009
				0.625437
				1.06112
				0.77469
				0.66116
				0.621219
				0.766443
				0.818772
				1.01607
				1.08418
				0.616898
				0.72859
				1.08217
				1.07841
				1.00906
				0.614169
				0.98476
				1.08011
				1.08031
				1.0473
				0.935601
				1.01025
				0.692193
				0.654756
				0.61059
				1.01263
				1.04314
				0.607946
				1.13922
				1.01772
				0.606286
				1.13418
				1.02416
				0.835622
				0.739576
				0.722522
				0.896536
				1.04276
				1.03334
				0.802744
				1.05131
				0.755971
				0.648847
				0.80019
				0.717977
				1.08171
				0.682958
				1.06937
				0.64432
				1.07629
				1.11163
				1.09368
				1.13321
				1.13522
				1.13586
				0.748127
				0.712493
				1.05341
				0.734325
				1.12191
				0.64075
				1.06465
				1.12165
				0.674112
				0.708413
				1.10958
				1.13243
				0.63664
				0.794278
				0.756233
				0.740144
				0.703639
				0.87295
				0.632143
				1.12581
				0.908998
				1.00989
				0.696783
				0.934944
				0.667454
				0.813022
				0.628788
				0.715315
				0.808605
				1.07296
				0.779394
				0.978903
				0.840206
				0.623841
				0.733826
				1.01267
				0.894634
				0.774627
				1.08437
				1.04626
				0.620393
				1.01935
				1.0602
				0.660323
				1.00769
				0.618727
				1.00967
				1.12909
				0.615994
				1.01262
				0.727215
				1.04417
				0.611664
				0.710404
				1.01812
				1.07073
				0.6098
				0.953105
				1.02582
				0.799669
				1.03348
				1.04203
				1.04928
				0.654296
				0.9791
				0.858293
				0.770898
				0.722352
				1.07276
				0.648513
				1.13141
				1.05636
				0.693299
				0.71692
				1.12502
				0.729629
				1.0649
				0.644966
				0.755631
				1.08306
				1.05589
				1.06205
				0.711775
				0.78965
				0.640762
				0.689785
				1.06965
				1.06017
				1.07749
				0.707286
				1.12962
				1.12237
				1.12238
				0.6358
				0.752755
				1.08194
				1.11513
				0.776053
				1.12468
				1.0789
				1.10457
				0.702063
				1.09897
				1.11113
				1.06485
				0.632024
				0.677026
				0.715445
				0.831625
				0.627076
				0.740714
				1.06872
				0.902959
				0.922074
				1.11666
				1.01687
				0.961758
				0.623265
				0.673935
				1.00441
				0.622012
				0.914182
				0.802973
				0.705953
				0.854527
				1.00948
				1.07121
				0.619616
				0.738121
				0.866258
				1.01117
				1.04394
				0.616095
				1.04982
				1.00287
				1.01547
				1.11862
				0.611911
				1.01821
				1.02196
				0.767555
				0.662453
				0.60809
				1.03034
				1.03727
				1.0593
				0.728556
				0.944958
				1.0623
				0.660354
				1.04703
				1.05754
				0.725906
				1.11822
				0.652582
				1.06698
				0.747946
				1.11336
				0.958252
				0.716376
				1.06764
				1.0424
				0.650171
				0.805275
				1.07399
				0.714645
				0.75049
				0.641508
				1.11641
				1.06989
				0.706611
				0.686985
				1.05859
				1.11313
				0.638944
				1.05335
				0.726938
				0.630852
				0.997826
				1.06538
				1.1147
				1.11633
				0.926977
				1.07438
				0.772473
				1.10319
				1.07872
				0.629267
				1.09572
				1.00799
				0.671623
				1.10262
				0.627315
				1.09147
				1.0083
				1.05923
				0.626071
				0.827423
				0.736406
				1.00926
				0.722847
				1.04479
				0.621344
				0.931122
				1.01614
				1.10753
				0.618642
				1.01289
				1.02017
				0.611786
				1.038
				1.03239
				1.00537
				0.781592
				0.827244
				0.877186
				0.908163
				0.856594
				0.659286
				1.06034
				1.03827
				1.0515
				0.723385
				1.05757
				1.04287
				0.970872
				1.11393
				1.07199
				1.10664
				0.702151
				0.976871
				0.647432
				1.07073
				0.744569
				0.713165
				1.06448
				0.762651
				1.06172
				1.10486
				1.05209
				1.04677
				0.801911
				0.635593
				1.01489
				0.802091
				1.10992
				1.07074
				1.05297
				1.10606
				1.06646
				0.630785
				0.68499
				1.00848
				1.04887
				0.794264
				0.625442
				0.747023
				1.06001
				1.1032
				1.0099
				1.03177
				0.929003
				0.618397
				1.02192
				0.815821
				0.846897
				1.06589
				1.0292
				1.09697
				1.06337
				1.08416
				0.721081
				1.09284
				1.08699
				1.04954
				1.05972
				1.09902
				0.67097
				1.01327
				0.779289
				0.962445
				1.06698
				0.820738
				0.732777
				1.04573
				0.886054
				0.871827
				0.930814
				1.04432
				0.657075
				1.10547
				1.06055
				1.0502
				0.722524
				1.04774
				1.10016
				1.09893
				0.973514
				0.700868
				0.764657
				1.05518
				1.09581
				0.644364
				0.761481
				0.80766
				0.819301
				1.05662
				1.10057
				0.638274
				1.09743
				1.00718
				1.03467
				1.00964
				0.63143
				1.05504
				1.01142
				1.03389
				0.685055
				0.624218
				1.04806
				1.05987
				0.907766
				1.06574
				1.04453
				0.745132
				0.788619
				0.739604
				0.951711
				1.05613
				0.841136
				1.06528
				1.04738
				1.02226
				1.0955
				1.03318
				1.0807
				0.669076
				0.794997
				1.08746
				1.08603
				1.0916
				0.731734
				1.07652
				1.05117
				0.845968
				0.997718
				1.09839
				0.876641
				0.983581
				0.892251
				0.654496
				0.921765
				0.725515
				1.03851
				1.02825
				0.717696
				1.04586
				1.06001
				1.04915
				1.05559
				1.0612
				1.09789
				0.645881
				0.774898
				1.09061
				0.761133
				0.950639
				1.09044
				1.08803
				0.638167
				0.8148
				1.00795
				1.05682
				1.05803
				1.09555
				1.09094
				0.631275
				1.03678
				1.01537
				0.699709
				1.05207
				1.0439
				0.776149
				0.997623
				0.756884
				1.04801
				1.04339
				1.05811
				0.810686
				0.947502
				1.05044
				1.0279
				0.681189
				0.736817
				0.860353
				0.743111
				1.02571
				1.08567
				1.05297
				1.05091
				0.79201
				1.05391
				0.976392
				1.07764
				1.08399
				1.07051
				0.665334
				1.0816
				0.8377
				1.07248
				1.08784
				0.737406
				0.906791
				0.885423
				1.05436
				1.04179
				0.656275
				0.942978
				0.716416
				0.953263
				1.08671
				0.781672
				1.04156
				0.77154
				0.646107
				1.00567
				1.0547
				1.07984
				1.08529
				0.636721
				0.832377
				1.08555
				0.826422
				1.08494
				1.08454
				1.04753
				1.01389
				0.696346
				1.02143
				0.754779
				1.02721
				1.03817
				1.04641
				0.974845
				1.04324
				0.805629
				1.06016
				1.04005
				1.04641
				0.755943
				1.04579
				1.0478
				0.677834
				0.745293
				0.853974
				0.807556
				1.01371
				1.04608
				0.666508
				0.989567
				1.05273
				0.863663
				1.0775
				1.07912
				0.809299
				1.07163
				0.90039
				1.06664
				0.904932
				1.07354
				0.733198
				0.654666
				1.0632
				1.00844
				0.933365
				0.785011
				1.08339
				1.03917
				0.643848
				1.07465
				1.00571
				0.777771
				1.03309
				1.03687
				0.638322
				1.00996
				1.04959
				1.02325
				0.976494
				1.04942
				1.04266
				0.828324
				1.08087
				1.0728
				0.710898
				1.07793
				1.01861
				1.07437
				0.768213
				1.04925
				1.04365
				1.0512
				1.05344
				0.691391
				0.828658
				1.04321
				0.758751
				0.75358
				1.03699
				1.03455
				1.04215
				0.873964
				0.802919
				0.679682
				1.0458
				1.01755
				0.818624
				0.664856
				0.978813
				1.04151
				1.07088
				0.855934
				1.07057
				0.918483
				1.00784
				1.04448
				1.04129
				1.03488
				1.06429
				1.07107
				0.653362
				0.728974
				1.0571
				0.898419
				1.07597
				0.643936
				1.0059
				0.782211
				1.05971
				1.06805
				0.953007
				0.798864
				0.994237
				1.00697
				0.955732
				1.02078
				1.03041
				1.04392
				1.07292
				1.01342
				0.845855
				1.07238
				1.03402
				1.05051
				0.70697
				1.06595
				1.06973
				0.769941
				1.06846
				1.03234
				0.692617
				0.771308
				1.04106
				0.823201
				0.770118
				0.817169
				1.03936
				1.03023
				0.869105
				0.676997
				1.03521
				0.954344
				1.03253
				1.03884
				1.03963
				0.999994
				1.04812
				0.663324
				1.04098
				0.877929
				0.743911
				0.651735
				1.00858
				1.07037
				1.03727
				1.06514
				0.803513
				1.02808
				0.795955
				0.911188
				1.05918
				1.06505
				0.917522
				1.06492
				1.05334
				0.944425
				0.98819
				0.79477
				1.07176
				1.05159
				1.04296
				1.06106
				0.721799
				0.839176
				0.968705
				0.783733
				1.06735
				1.03802
				1.0462
				1.02925
				1.01713
				1.05992
				1.02881
				0.994688
				0.70646
				1.03667
				1.02972
				0.78717
				1.06255
				1.062
				0.843878
				0.764873
				1.03926
				0.688274
				1.02754
				1.04447
				0.94979
				0.811617
				0.88643
				0.672618
				1.02723
				1.02909
				1.03706
				0.662982
				1.06036
				1.00794
				0.783101
				1.04802
				1.04395
				0.867799
				0.737721
				0.796198
				1.03214
				0.929562
				1.05852
				0.909699
				0.968639
				1.06348
				1.03297
				1.05265
				0.813996
				1.06379
				1.05973
				1.05939
				1.00454
				1.03925
				1.04401
				0.855558
				0.721555
				0.95942
				1.0593
				0.786981
				1.04874
				1.05614
				1.04486
				1.01417
				1.0376
				1.05425
				1.02696
				0.701144
				1.04272
				0.864485
				1.02979
				1.02523
				0.778038
				0.840573
				0.684624
				0.824659
				0.978939
				1.06008
				1.05711
				1.02327
				0.881692
				0.671091
				1.03177
				1.0535
				0.664254
				1.01694
				1.04238
				0.768025
				0.954395
				1.02856
				1.03346
				0.892875
				1.04286
				0.818283
				0.962101
				1.00137
				1.03822
				1.01232
				1.02912
				0.930367
				0.921185
				0.797693
				0.738304
				1.05349
				1.05947
				1.04826
				1.03921
				1.05366
				0.795444
				0.840379
				1.03597
				0.964431
				1.05371
				1.03109
				1.05408
				0.728267
				1.04067
				0.851875
				1.03884
				1.04838
				1.02278
				1.0487
				0.699515
				0.853388
				0.978583
				1.05226
				1.03667
				1.02763
				0.692396
				1.01201
				1.03023
				1.02494
				0.759425
				1.02029
				0.890255
				0.673805
				1.03563
				1.0504
				1.05065
				0.818497
				1.02085
				0.984017
				0.879163
				0.885115
				1.02517
				0.994895
				1.03782
				0.974612
				1.03128
				0.945428
				0.829738
				0.917478
				1.01858
				1.04978
				1.05161
				1.04766
				0.868083
				1.0281
				0.719817
				1.04173
				0.899805
				1.03703
				1.04833
				1.03224
				1.04748
				1.02206
				1.02695
				1.03821
				1.03516
				0.693116
				1.04405
				1.01733
				1.04473
				1.03006
				0.998827
				1.02205
				0.787807
				1.03604
				0.841482
				0.941743
				0.823178
				0.985439
				0.925169
				1.04935
				1.01377
				1.02572
				1.04637
				1.04361
				1.03512
				0.905157
				0.864591
				1.02385
				1.01765
				1.01474
				1.0267
				1.00018
				1.02196
				0.933581
				0.966147
				1.0283
				0.743889
				1.02617
				1.04302
				0.893569
				1.04701
				1.04323
				1.0288
				1.03887
				0.714154
				1.04384
				0.9976
				1.02867
				1.01495
				1.03079
				1.01974
				1.04377
				1.03185
				1.02732
				1.02652
				1.04083
				1.03934
				1.01844
				1.03845
				0.778996
				1.02988
				0.965518
				0.864415
				1.04312
				1.02438
				0.853052
				1.00124
				1.04101
				1.0119
				0.897077
				1.02154
				1.01469
				0.888547
				1.02188
				0.912526
				1.03107
				1.01425
				1.04051
				1.01687
				1.02975
				1.02009
				0.924146
				0.983655
				0.73649
				1.04155
				0.955996
				1.02567
				1.03866
				1.0053
				1.0394
				0.731228
				1.0333
				0.967437
				1.0392
				1.02657
				1.02369
				1.02095
				1.02007
				1.01232
				1.0386
				1.02337
				1.0356
				0.804322
				1.02767
				1.03593
				0.877209
				1.0176
				1.03083
				0.982428
				1.00076
				1.02134
				1.03683
				1.01058
				1.03971
				1.02702
				0.839813
				1.03737
				0.914378
				0.887292
				0.761464
				0.984158
				1.01049
				0.953848
				1.0147
				1.00263
				1.03561
				1.01636
				1.02268
				1.01836
				0.938602
				1.03803
				1.01901
				0.988958
				1.02342
				1.03495
				0.747034
				0.945279
				1.02197
				1.02322
				1.03569
				1.01742
				1.03536
				1.03078
				1.0336
				1.01641
				1.01096
				1.01118
				0.794713
				0.999837
				1.02489
				1.03136
				1.03539
				1.02163
				0.915984
				1.01507
				1.02343
				1.03338
				0.964385
				1.01627
				1.03471
				1.02515
				1.02991
				1.01571
				0.863256
				1.03324
				1.01576
				0.751644
				0.907749
				0.984931
				0.900735
				1.0234
				0.979877
				1.00934
				1.0126
				1.01151
				0.92782
				1.03361
				0.988545
				1.01187
				0.999346
				1.03288
				1.03189
				0.788116
				1.01483
				1.01995
				1.02047
				0.955126
				1.02988
				1.03172
				1.03233
				1.02086
				1.02612
				0.817637
				0.920299
				0.966441
				1.00666
				1.02838
				1.00668
				1.02248
				1.03121
				1.01842
				1.01279
				0.984259
				1.0294
				1.02334
				0.780517
				1.01444
				0.848199
				1.03207
				1.03087
				1.02924
				0.971901
				1.00896
				0.913872
				0.917385
				1.01016
				1.00639
				1.01842
				1.00795
				0.949169
				0.99934
				1.0105
				1.03074
				0.983412
				1.02807
				0.786333
				1.02809
				1.01488
				1.01206
				0.942155
				1.02859
				0.996655
				1.0161
				1.0072
				1.01893
				1.01725
				1.02917
				1.02862
				1.02693
				0.806785
				1.0054
				1.02392
				0.955621
				1.01946
				1.00661
				1.02464
				0.997154
				1.00911
				1.02864
				1.0163
				0.972146
				0.871793
				1.02783
				1.01837
				1.02669
				1.00955
				0.93059
				1.01328
				0.945915
				1.02471
				0.80762
				0.90385
				1.01037
				1.00808
				0.985998
				1.02682
				1.02707
				1.01279
				1.00799
				1.02028
				1.02422
				1.00941
				0.973698
				1.02609
				0.956859
				1.00688
				1.01683
				0.828623
				0.95706
				1.0256
				1.02632
				0.994034
				1.00535
				1.0154
				1.01585
				1.02002
				1.02397
				1.01787
				0.995686
				1.022
				1.00373
				1.00412
				1.02518
				1.0078
				1.01415
				0.982558
				0.85661
				0.996842
				1.02563
				0.943962
				1.01769
				0.959135
				1.00674
				1.00776
				0.976249
				0.924451
				0.950467
				1.02363
				1.01301
				0.828029
				1.02289
				1.02249
				1.02472
				1.00709
				1.01119
				1.0099
				1.0054
				1.02174
				1.01536
				0.977603
				1.01375
				0.980042
				1.02135
				1.02311
				1.00701
				1.02301
				1.01396
				1.01341
				0.998018
				1.00808
				1.01515
				1.01815
				1.00166
				1.01909
				1.00094
				0.881186
				1.00543
				0.843624
				1.023
				0.951062
				0.999126
				1.02268
				0.978036
				1.01262
				0.995203
				1.00758
				1.0131
				1.00484
				1.00611
				1.01051
				0.913257
				0.964719
				0.959051
				1.01984
				1.01976
				1.0106
				1.02246
				0.98634
				0.980352
				1.02087
				1.00287
				1.00642
				1.01981
				1.00817
				1.01605
				1.01336
				1.0192
				1.02077
				0.946468
				1.01886
				1.02129
				1.01226
				0.990468
				1.01379
				1.00294
				1.01199
				1.01484
				1.00077
				1.0169
				0.871009
				1.00582
				0.967065
				1.02015
				1.00125
				1.00994
				1.02119
				0.959082
				1.01057
				0.99601
				1.00155
				1.0082
				0.98184
				0.931424
				0.969365
				1.00245
				1.01269
				1.00194
				1.00487
				1.02047
				1.01885
				1.0189
				0.992905
				1.01726
				1.01134
				0.992755
				0.951695
				1.00443
				1.00448
				1.01662
				1.0023
				1.01136
				1.01717
				1.011
				1.01863
				1.01688
				1.01909
				0.889129
				1.0122
				1.01033
				1.00409
				1.01352
				0.970526
				1.0144
				1.00415
				1.0187
				1.01847
				0.971109
				0.988692
				1.00216
				0.998261
				1.00653
				0.999757
				1.00952
				1.00391
				0.928923
				1.00919
				0.989159
				1.00882
				0.971421
				1.00247
				1.01854
				1.01658
				0.993285
				1.0157
				1.01498
				1.01091
				1.00392
				1.01454
				0.908186
				0.939011
				0.986154
				0.999392
				0.915762
				1.01808
				1.00429
				1.01655
				1.01245
				1.01132
				1.00995
				1.0149
				1.01472
				1.0033
				0.983289
				1.00932
				1.0108
				1.01268
				1.00538
				0.999881
				1.00335
				1.01628
				0.963463
				0.998464
				0.987335
				1.00711
				1.01667
				0.978193
				0.998877
				0.985997
				1.00714
				0.942572
				1.00203
				1.01487
				1.00883
				1.00074
				1.00961
				0.999326
				1.01516
				1.01291
				1.00262
				1.01285
				1.00307
				0.918839
				0.991443
				1.01541
				0.956248
				1.0095
				1.0087
				0.921707
				0.999498
				1.01494
				1.0088
				0.984912
				1.01296
				1.01282
				1.00761
				1.00618
				1.00988
				1.007
				0.99546
				1.01064
				1.00176
				1.00243
				1.00039
				0.998087
				0.971576
				1.01479
				0.984283
				1.01442
				1.00163
				0.982369
				0.93668
				0.991512
				1.01299
				0.996336
				1.00693
				1.00566
				0.998922
				1.00075
				1.01265
				1.00869
				1.01124
				1.00183
				0.942628
				1.01405
				1.01119
				0.998959
				0.985354
				1.01328
				1.00163
				1.00721
				1.00996
				0.992971
				1.01124
				1.01123
				1.00578
				0.994675
				1.00436
				1.00684
				1.00512
				1.00769
				0.943608
				1.0094
				0.998269
				1.00204
				1.01304
				0.99681
				0.986266
				0.987958
				0.968145
				0.94898
				1.00049
				1.01302
				1.01158
				0.990256
				0.99683
				1.00592
				1.00242
				1.00595
				1.00017
				1.00765
				1.01222
				1.00207
				1.00964
				1.0099
				1.00112
				1.01202
				1.00638
				0.990647
				1.01205
				0.997839
				0.993595
				0.954767
				1.00705
				1.00975
				1.0098
				1.0008
				1.00422
				1.00567
				0.947099
				0.998228
				1.00616
				1.00778
				1.00708
				0.987093
				1.0016
				0.990523
				0.976836
				1.01198
				0.99727
				1.00032
				1.01086
				0.971643
				1.01007
				0.994159
				0.997047
				1.00121
				1.00339
				1.0052
				1.00064
				1.00642
				1.01023
				1.00843
				1.01057
				1.00079
				0.999363
				1.0086
				1.01046
				0.986475
				0.963515
				0.956102
				1.00546
				0.999977
				0.998048
				0.999334
				1.00834
				0.996997
				1.00377
				1.00483
				1.00858
				1.00847
				1.00691
				1.00511
				1.00529
				0.992544
				1.00129
				0.999497
				1.01056
				0.991959
				0.971904
				1.00892
				1.01002
				0.994554
				0.971555
				0.994397
				1.00559
				1.00438
				1.00307
				0.997307
				1.00012
				1.00377
				1.0017
				0.960413
				1.00767
				1.00918
				1.00999
				1.00718
				1.00024
				1.00943
				1.00487
				0.990161
				0.964806
				0.995679
				1.0021
				0.99662
				0.99804
				1.00635
				0.976917
				0.99765
				1.00743
				0.995709
				1.00743
				1.00426
				1.00491
				1.00563
				1.00498
				1.0011
				0.999646
				0.990469
				1.00959
				1.00906
				1.00779
				0.996763
				1.00375
				0.981445
				0.995522
				0.965675
				1.0023
				1.00492
				1.00167
				0.99616
				1.00173
				1.00023
				1.0083
				1.00632
				1.0084
				0.997396
				1.00037
				1.00664
				1.00853
				0.968816
				1.00141
				0.985739
				1.00411
				1.00672
				1.00049
				0.998858
				0.996713
				0.973198
				0.996764
				1.00417
				1.00507
				1.0066
				1.0038
				1.0064
				1.00813
				1.00349
				0.998843
				1.00058
				1.00855
				1.0071
				0.997417
				1.00817
				1.00303
				0.993709
				1.00433
				1.00138
				0.995231
				0.981411
				0.974164
				1.00314
				0.999387
				1.00222
				0.997521
				0.989334
				1.00596
				1.00535
				1.00817
				1.00782
				1.00163
				0.999716
				1.00372
				1.00723
				0.977489
				1.00033
				0.996104
				1.0056
				0.997173
				0.998731
				0.999158
				1.00409
				1.0057
				1.00313
				1.00567
				1.00409
				0.999284
				1.00347
				1.0002
				0.998876
				1.00693
				1.00788
				1.00706
				1.00611
				0.993143
				1.00325
				1.00032
				1.00382
				1.00288
				0.996703
				1.00264
				0.988712
				0.995697
				0.976345
				0.985794
				1.00044
				1.00476
				1.00716
				1.00516
				0.999747
				1.0068
				1.0067
				1.0013
				0.996928
				0.977741
				1.0032
				0.997309
				1.00163
				0.999855
				1.0062
				0.999504
				1.00354
				0.999292
				1.00376
				0.998209
				1.00509
				1.0029
				1.00488
				1.00249
				0.999556
				1.00712
				1.00033
				1.00658
				1.00547
				1.00175
				0.988388
				0.995195
				1.00342
				1.00343
				0.996406
				0.999784
				1.00254
				1.003
				0.988601
				1.00571
				0.995935
				1.00123
				0.983069
				1.00466
				1.00623
				1.00403
				1.00688
				0.999371
				0.981743
				1.00294
				0.996415
				1.00165
				1.00148
				1.00017
				0.998344
				1.0053
				1.00055
				1.00343
				0.999982
				1.0044
				1.00238
				1.00053
				1.00301
				1.00435
				1.00584
				1.00249
				1.00004
				1.0064
				1.00478
				0.98582
				0.994803
				0.992399
				1.00138
				0.99618
				1.00406
				1.00313
				0.998144
				1.00279
				1.00528
				1.00223
				1.00026
				0.992454
				0.995646
				1.00362
				1.00404
				1.0061
				0.984188
				1.00559
				0.999393
				0.983954
				1.0025
				1.00221
				1.00143
				0.99806
				0.998443
				1.00295
				0.998819
				1.00545
				1.00082
				1.00093
				1.00525
				0.988511
				1.0028
				1.00004
				1.00397
				1.00224
				1.00374
				1.00164
				1.00582
				1.00441
				1.00529
				1.00225
				0.996257
				1.00289
				0.993761
				0.998265
				1.00354
				0.996839
				1.00191
				0.991934
				1.00368
				1.00073
				1.00519
				0.99677
				1.00286
				1.00456
				1.00305
				1.00574
				0.986478
				0.988734
				0.999214
				1.00236
				1.00208
				1.00188
				0.996901
				0.998511
				0.987432
				1.00482
				1.00159
				1.00002
				1.00149
				0.991941
				1.00343
				1.00005
				1.00188
				1.00224
				1.00338
				1.00446
				1.00456
				1.0053
				1.0021
				1.00178
				1.00381
				0.995729
				1.00397
				1.0004
				1.00256
				0.995903
				1.00171
				0.994059
				0.999705
				1.00319
				1.00266
				1.00426
				0.988749
				1.00279
				1.00516
				1.00451
				0.999389
				0.999259
				0.989765
				0.997905
				1.00204
				1.00238
				0.990124
				0.998178
				1.00132
				1.0017
				1.00168
				1.00479
				0.992112
				0.998235
				1.00215
				0.99955
				1.00312
				1.00182
				1.00259
				1.00291
				1.00431
				1.00488
				1.00118
				1.00346
				1.00347
				1.00245
				0.996946
				0.998632
				0.997502
				1.00364
				1.0015
				1.00292
				1.00418
				0.993261
				1.00036
				1.00483
				1.00237
				0.990099
				1.00186
				0.999021
				0.997089
				1.00249
				1.00199
				0.990248
				1.00212
				1.00198
				0.994603
				0.998569
				1.00429