<VTKFile type="UnstructuredGrid" version="0.1" byte_order="LittleEndian">
<UnstructuredGrid>
	<Piece NumberOfPoints="1485" NumberOfCells="2857">
		<PointData Scalars="density" Vectors="velocity">
			<DataArray type="Float64" Name="density" Format="ascii">
				0.283171
				0.24972
				0.249894
				0.250159
				0.250223
				0.273252
				0.26871
				0.265133
				0.261933
				0.259109
				0.2567
				0.254667
				0.252989
				0.251856
				0.250947
				0.251597
				0.238699
				0.186028
				0.172894
				0.173849
				0.174944
				0.175776
				0.176595
				0.177528
				0.178595
				0.179953
				0.18157
				0.183063
				0.184912
				0.186907
				0.188877
				0.192583
				0.196086
				0.198604
				0.201637
				0.2056
				0.209591
				0.213801
				0.218845
				0.225227
				0.232885
				0.242306
				0.255171
				0.272365
				0.296823
				0.327357
				0.339751
				0.313979
				0.274905
				0.248716
				0.233055
				0.220946
				0.212859
				0.206798
				0.201511
				0.196532
				0.191847
				0.188519
				0.185109
				0.182142
				0.178945
				0.175815
				0.172995
				0.170336
				0.168058
				0.166062
				0.164299
				0.162511
				0.160844
				0.159326
				0.158092
				0.157087
				0.156256
				0.155819
				0.155593
				0.155069
				0.154369
				0.153268
				0.151441
				0.150042
				0.149826
				0.149947
				0.153142
				0.217921
				0.259724
				0.261788
				0.265273
				0.268696
				0.272317
				0.249882
				0.250012
				0.249999
				0.249993
				0.249962
				0.249917
				0.249956
				0.250095
				0.250174
				0.250176
				0.250165
				0.250158
				0.250171
				0.250187
				0.250222
				0.25028
				0.250356
				0.2504
				0.250083
				0.250048
				0.250028
				0.250014
				0.250017
				0.249976
				0.334437
				0.332794
				0.315341
				0.31794
				0.328003
				0.296019
				0.291091
				0.269864
				0.322984
				0.322171
				0.303752
				0.289656
				0.306866
				0.271119
				0.250785
				0.310237
				0.31742
				0.3176
				0.289083
				0.27426
				0.256224
				0.255603
				0.23602
				0.272976
				0.310864
				0.311475
				0.293539
				0.24368
				0.224437
				0.242285
				0.299126
				0.275082
				0.259078
				0.285812
				0.309832
				0.234234
				0.216163
				0.307932
				0.302733
				0.209227
				0.307575
				0.220178
				0.226449
				0.259169
				0.2728
				0.230584
				0.247524
				0.203248
				0.215203
				0.30176
				0.302495
				0.285885
				0.221691
				0.197883
				0.237885
				0.293819
				0.301862
				0.246
				0.292745
				0.260578
				0.210802
				0.274444
				0.28249
				0.302219
				0.276261
				0.193584
				0.213853
				0.206498
				0.229827
				0.299627
				0.295331
				0.189849
				0.260529
				0.202776
				0.299143
				0.271773
				0.206798
				0.234653
				0.223834
				0.249857
				0.271304
				0.186487
				0.199759
				0.294434
				0.278898
				0.285512
				0.18313
				0.202185
				0.218713
				0.29483
				0.196492
				0.28776
				0.225638
				0.240377
				0.248268
				0.179874
				0.267699
				0.278752
				0.281042
				0.295889
				0.261092
				0.197059
				0.192784
				0.21378
				0.272934
				0.294638
				0.295225
				0.176748
				0.279375
				0.277472
				0.189883
				0.271686
				0.272682
				0.216248
				0.232569
				0.173888
				0.193441
				0.209536
				0.187685
				0.292488
				0.289662
				0.171295
				0.260596
				0.274437
				0.264008
				0.185698
				0.189337
				0.211875
				0.270308
				0.273671
				0.169026
				0.236753
				0.227266
				0.205738
				0.251221
				0.292014
				0.183898
				0.166997
				0.267165
				0.185925
				0.182239
				0.288152
				0.201722
				0.165089
				0.271649
				0.279133
				0.205664
				0.180685
				0.221784
				0.163276
				0.289953
				0.182444
				0.179381
				0.224596
				0.197951
				0.161602
				0.284085
				0.288545
				0.283428
				0.241805
				0.271196
				0.178274
				0.249419
				0.260031
				0.160145
				0.290084
				0.260335
				0.179323
				0.202
				0.177316
				0.158926
				0.288907
				0.216372
				0.19524
				0.272912
				0.176393
				0.273438
				0.263724
				0.157937
				0.175372
				0.176314
				0.270489
				0.15723
				0.269813
				0.174335
				0.156759
				0.191893
				0.288441
				0.276936
				0.236716
				0.173363
				0.196561
				0.156252
				0.268696
				0.212602
				0.155586
				0.17374
				0.212702
				0.251822
				0.154585
				0.251834
				0.189678
				0.153134
				0.250575
				0.251856
				0.151778
				0.252846
				0.15102
				0.286188
				0.254221
				0.150734
				0.256057
				0.15049
				0.171226
				0.260791
				0.193375
				0.284025
				0.258256
				0.187623
				0.260108
				0.21416
				0.181866
				0.207409
				0.268521
				0.230642
				0.169009
				0.238007
				0.24924
				0.185682
				0.270963
				0.270549
				0.269634
				0.166931
				0.188711
				0.183914
				0.285975
				0.281366
				0.203051
				0.277305
				0.16513
				0.182432
				0.285093
				0.223551
				0.163428
				0.268958
				0.186156
				0.266796
				0.180963
				0.201198
				0.285527
				0.161989
				0.179801
				0.160679
				0.18205
				0.178619
				0.249846
				0.282907
				0.204477
				0.283427
				0.284796
				0.159782
				0.227308
				0.197529
				0.177477
				0.220299
				0.259332
				0.158909
				0.266341
				0.176452
				0.265813
				0.158023
				0.179918
				0.175457
				0.157253
				0.269593
				0.194962
				0.189061
				0.156205
				0.239843
				0.236347
				0.154865
				0.268438
				0.252513
				0.15416
				0.176282
				0.252279
				0.153621
				0.259193
				0.214132
				0.252742
				0.152711
				0.253951
				0.151775
				0.274296
				0.191676
				0.267542
				0.255747
				0.262612
				0.219138
				0.155922
				0.257654
				0.259911
				0.266232
				0.28281
				0.270348
				0.174261
				0.262726
				0.280929
				0.278822
				0.190123
				0.195863
				0.171061
				0.208943
				0.258371
				0.23073
				0.187442
				0.239617
				0.218123
				0.169652
				0.266039
				0.26862
				0.250165
				0.186272
				0.167123
				0.184061
				0.268486
				0.267698
				0.268022
				0.166104
				0.281386
				0.280443
				0.188644
				0.183021
				0.163962
				0.203058
				0.181146
				0.266221
				0.163342
				0.276743
				0.273075
				0.280448
				0.280492
				0.180092
				0.161655
				0.264702
				0.27789
				0.178484
				0.279883
				0.160716
				0.177882
				0.221256
				0.159075
				0.278595
				0.233005
				0.24697
				0.179714
				0.157897
				0.18219
				0.208154
				0.21129
				0.156379
				0.247788
				0.196992
				0.256124
				0.156418
				0.263844
				0.25312
				0.155963
				0.252827
				0.155529
				0.253483
				0.248375
				0.154002
				0.255116
				0.153215
				0.243329
				0.257148
				0.182669
				0.259203
				0.261421
				0.260506
				0.266969
				0.265397
				0.176491
				0.26523
				0.191975
				0.270808
				0.264191
				0.263866
				0.265663
				0.267543
				0.277452
				0.276302
				0.199642
				0.274282
				0.171953
				0.213008
				0.187986
				0.223519
				0.256928
				0.23416
				0.263932
				0.2769
				0.168419
				0.184379
				0.165068
				0.265348
				0.192102
				0.275772
				0.238004
				0.181392
				0.264971
				0.205978
				0.266521
				0.161441
				0.276616
				0.190064
				0.263306
				0.275646
				0.262243
				0.159223
				0.246988
				0.236129
				0.265311
				0.272608
				0.269206
				0.273443
				0.158114
				0.253317
				0.263279
				0.185435
				0.259851
				0.156485
				0.254588
				0.27441
				0.220843
				0.169819
				0.260238
				0.24837
				0.199806
				0.213093
				0.22502
				0.256464
				0.261812
				0.264894
				0.274181
				0.17983
				0.194601
				0.264488
				0.262586
				0.267535
				0.261607
				0.265736
				0.17526
				0.204172
				0.190151
				0.263315
				0.272928
				0.229057
				0.257238
				0.216734
				0.272246
				0.270258
				0.170998
				0.254213
				0.238227
				0.186333
				0.262613
				0.260813
				0.166611
				0.273565
				0.183787
				0.260904
				0.272737
				0.243168
				0.196253
				0.271519
				0.163584
				0.211925
				0.209528
				0.262935
				0.272467
				0.161527
				0.272102
				0.250613
				0.249235
				0.159569
				0.262179
				0.252756
				0.23091
				0.166301
				0.260815
				0.264028
				0.189696
				0.265804
				0.255237
				0.258863
				0.268959
				0.203251
				0.269545
				0.27084
				0.218652
				0.228394
				0.184083
				0.260037
				0.263584
				0.26273
				0.197518
				0.269743
				0.263403
				0.259321
				0.178648
				0.2621
				0.249942
				0.192738
				0.26116
				0.259262
				0.264111
				0.208477
				0.234985
				0.257655
				0.173304
				0.220243
				0.189451
				0.269017
				0.240212
				0.26678
				0.268686
				0.169662
				0.269344
				0.196937
				0.260731
				0.166651
				0.234417
				0.200605
				0.163595
				0.25133
				0.267794
				0.161213
				0.213116
				0.269345
				0.197198
				0.269165
				0.252946
				0.257017
				0.258689
				0.260654
				0.259135
				0.258748
				0.260122
				0.194053
				0.255077
				0.206236
				0.249991
				0.262739
				0.222392
				0.267571
				0.266133
				0.265584
				0.23144
				0.18742
				0.20005
				0.266815
				0.257814
				0.260559
				0.257188
				0.243928
				0.261451
				0.180849
				0.266587
				0.195658
				0.261475
				0.260698
				0.260533
				0.176714
				0.212278
				0.26026
				0.195182
				0.257202
				0.258572
				0.223743
				0.172823
				0.253566
				0.221118
				0.168963
				0.243176
				0.26569
				0.235135
				0.247358
				0.258656
				0.263734
				0.265559
				0.165655
				0.267044
				0.169749
				0.205029
				0.251116
				0.228019
				0.254521
				0.256932
				0.266088
				0.216294
				0.264643
				0.266189
				0.196897
				0.208287
				0.2589
				0.257454
				0.258903
				0.260311
				0.259898
				0.224706
				0.189651
				0.264386
				0.202825
				0.2632
				0.235386
				0.264669
				0.262232
				0.245739
				0.259582
				0.186121
				0.201379
				0.259801
				0.255928
				0.254344
				0.256386
				0.247328
				0.180512
				0.2568
				0.207634
				0.263787
				0.263566
				0.216205
				0.258713
				0.176872
				0.233577
				0.226756
				0.171659
				0.255583
				0.255666
				0.258621
				0.169681
				0.250106
				0.194045
				0.260107
				0.236572
				0.262855
				0.26382
				0.257333
				0.260935
				0.206934
				0.262605
				0.217281
				0.263141
				0.243366
				0.261945
				0.254746
				0.198875
				0.211308
				0.261595
				0.256127
				0.257332
				0.228388
				0.236819
				0.250361
				0.257376
				0.253318
				0.257045
				0.189077
				0.260673
				0.259083
				0.215988
				0.2579
				0.24135
				0.261957
				0.258346
				0.254083
				0.179813
				0.216519
				0.239143
				0.261463
				0.257947
				0.255588
				0.252116
				0.255783
				0.254396
				0.225593
				0.194297
				0.258444
				0.261082
				0.254649
				0.245948
				0.25809
				0.257077
				0.261213
				0.260441
				0.258742
				0.260605
				0.260257
				0.256023
				0.259672
				0.203897
				0.218465
				0.233087
				0.245823
				0.241
				0.253027
				0.259493
				0.252745
				0.255104
				0.249323
				0.254851
				0.238823
				0.256029
				0.192835
				0.255879
				0.259481
				0.228532
				0.256493
				0.258549
				0.184072
				0.259705
				0.246455
				0.255798
				0.253058
				0.254139
				0.255636
				0.25586
				0.25308
				0.257452
				0.259299
				0.219742
				0.259038
				0.228519
				0.210279
				0.25653
				0.255172
				0.25376
				0.259022
				0.255685
				0.258539
				0.256816
				0.242561
				0.258577
				0.252381
				0.258251
				0.254693
				0.257807
				0.207454
				0.257826
				0.226807
				0.245988
				0.250492
				0.252867
				0.231797
				0.197475
				0.249354
				0.251884
				0.238963
				0.249767
				0.257661
				0.25334
				0.237771
				0.254033
				0.2547
				0.189114
				0.255177
				0.257873
				0.253493
				0.257839
				0.256706
				0.252725
				0.252717
				0.255037
				0.252441
				0.254175
				0.257427
				0.255979
				0.221063
				0.257259
				0.233024
				0.223539
				0.252633
				0.257273
				0.246426
				0.249106
				0.257067
				0.254461
				0.239845
				0.256516
				0.256922
				0.25524
				0.210169
				0.235055
				0.24165
				0.251128
				0.256142
				0.256663
				0.253666
				0.24503
				0.256194
				0.200208
				0.248404
				0.232575
				0.250906
				0.250981
				0.253254
				0.251197
				0.252194
				0.255975
				0.251945
				0.253257
				0.253989
				0.253593
				0.256312
				0.250959
				0.25518
				0.254087
				0.251626
				0.241591
				0.22309
				0.256073
				0.253094
				0.255608
				0.237653
				0.252538
				0.25492
				0.224532
				0.246877
				0.255942
				0.25174
				0.255247
				0.212697
				0.241275
				0.255633
				0.247135
				0.250592
				0.253407
				0.25389
				0.248175
				0.254789
				0.250469
				0.255346
				0.252813
				0.243096
				0.249842
				0.251437
				0.234997
				0.254787
				0.249872
				0.25108
				0.251338
				0.252432
				0.242856
				0.252856
				0.25461
				0.255111
				0.251516
				0.255072
				0.253087
				0.252735
				0.253227
				0.253921
				0.250048
				0.2254
				0.250928
				0.225992
				0.241621
				0.254938
				0.244209
				0.248555
				0.251942
				0.254236
				0.253857
				0.254979
				0.245618
				0.251088
				0.254091
				0.25452
				0.252641
				0.252786
				0.249808
				0.253609
				0.254285
				0.249969
				0.251863
				0.237671
				0.248716
				0.251659
				0.245136
				0.250504
				0.250514
				0.254138
				0.252268
				0.248865
				0.241347
				0.251592
				0.250723
				0.253582
				0.253626
				0.252404
				0.25407
				0.226554
				0.252657
				0.252031
				0.252897
				0.244968
				0.250512
				0.253949
				0.244391
				0.249414
				0.232009
				0.248763
				0.251095
				0.248331
				0.253054
				0.253164
				0.250637
				0.25313
				0.233044
				0.253613
				0.251999
				0.250912
				0.251938
				0.25268
				0.251058
				0.24948
				0.253439
				0.238602
				0.249862
				0.247328
				0.246665
				0.249639
				0.251395
				0.250052
				0.253282
				0.251879
				0.250332
				0.252773
				0.25124
				0.234524
				0.248523
				0.241694
				0.251836
				0.253269
				0.247354
				0.252736
				0.251522
				0.252099
				0.250278
				0.249101
				0.244978
				0.253023
				0.249125
				0.250511
				0.249648
				0.252467
				0.252366
				0.25035
				0.252387
				0.252818
				0.25147
				0.251026
				0.248196
				0.250582
				0.251295
				0.238097
				0.251976
				0.252773
				0.249284
				0.248005
				0.241694
				0.239485
				0.249658
				0.252516
				0.249557
				0.251121
				0.251465
				0.251038
				0.252131
				0.250045
				0.251351
				0.248362
				0.252605
				0.248828
				0.252065
				0.251133
				0.251495
				0.24529
				0.25023
				0.245439
				0.248976
				0.252319
				0.249559
				0.250208
				0.250099
				0.252013
				0.251768
				0.250169
				0.251821
				0.252265
				0.242204
				0.240463
				0.25109
				0.24984
				0.248475
				0.250625
				0.250936
				0.251451
				0.250819
				0.248995
				0.249449
				0.252241
				0.251967
				0.249039
				0.243182
				0.251132
				0.249644
				0.250929
				0.251646
				0.249839
				0.252091
				0.251013
				0.248147
				0.249655
				0.245343
				0.251562
				0.250809
				0.251052
				0.250042
				0.246855
				0.251899
				0.249818
				0.249295
				0.243303
				0.250454
				0.249753
				0.251801
				0.251323
				0.25171
				0.249826
				0.249998
				0.251393
				0.251783
				0.250792
				0.248692
				0.249656
				0.250833
				0.251066
				0.250495
				0.249388
				0.251842
				0.251508
				0.250476
				0.250892
				0.250501
				0.249041
				0.245244
				0.247952
				0.251267
				0.251683
				0.24967
				0.250766
				0.245583
				0.2501
				0.251154
				0.2499
				0.251185
				0.250587
				0.250748
				0.250031
				0.250097
				0.251454
				0.247971
				0.249249
				0.250538
				0.249436
				0.245064
				0.249705
				0.250995
				0.251485
				0.25107
				0.249868
				0.251443
				0.24996
				0.249097
				0.250581
				0.250731
				0.250077
				0.250789
				0.250316
				0.251508
				0.251197
				0.250648
				0.247446
				0.250696
				0.249015
				0.250407
				0.246915
				0.250987
				0.251356
				0.249633
				0.246244
				0.250585
				0.248841
				0.250342
				0.249946
				0.251074
				0.250905
				0.250413
				0.250333
				0.250533
				0.251197
				0.248539
				0.249312
				0.25057
				0.251122
				0.249702
				0.249659
				0.250754
				0.250827
				0.251259
				0.24665
				0.251134
				0.249843
				0.250424
				0.250077
				0.249272
				0.250304
				0.247444
				0.250592
				0.250182
				0.251235
				0.250924
				0.250683
				0.25056
				0.248754
				0.249342
				0.250324
				0.247863
				0.250767
				0.251093
				0.247166
				0.249674
				0.250443
				0.250433
				0.25096
				0.249861
				0.250442
				0.250697
				0.250304
				0.250391
				0.25091
				0.24878
				0.249888
				0.249282
				0.24967
				0.250641
				0.25049
				0.247891
				0.250579
				0.251059
				0.250917
				0.249827
				0.250315
				0.248097
				0.249426
				0.25041
				0.250454
				0.250666
				0.251009
				0.250123
				0.250736
				0.250447
				0.249594
				0.250159
				0.2506
				0.250877
				0.247935
				0.249704
				0.249064
				0.250338
				0.250474
				0.250839
				0.249655
				0.25054
				0.2499
				0.250202
				0.250302
				0.250765
				0.248784
				0.249205
				0.250429
				0.250708
				0.249366
				0.2505
				0.250884
				0.249764
				0.250726
				0.25045
				0.249856
				0.250427
				0.248531
				0.250221
				0.248588
				0.25041
				0.249531
				0.250616
				0.250357
				0.25082
				0.250574
				0.250106
				0.25035
				0.249759
				0.249993
				0.250133
				0.250468
				0.250703
				0.249536
				0.250247
				0.249777
				0.248527
				0.249359
				0.250719
				0.250455
				0.249258
				0.25058
				0.250421
				0.250132
				0.250246
				0.249942
				0.250362
				0.250386
				0.250729
				0.250567
				0.249496
				0.250352
				0.249854
				0.248805
				0.249894
				0.250151
				0.248983
				0.24964
				0.250544
				0.249105
				0.250365
				0.250283
				0.250664
				0.250451
				0.250105
				0.25027
				0.250104
				0.249902
				0.249865
				0.250359
				0.250551
				0.249078
				0.2495
				0.250169
				0.249857
				0.24956
				0.250398
				0.250601
				0.250327
				0.250444
				0.250089
				0.249434
				0.250205
				0.250283
				0.249265
				0.250597
				0.250438
				0.250297
				0.249969
				0.250277
				0.249924
				0.249936
				0.250098
				0.249652
				0.250453
				0.249776
				0.250291
				0.250229
				0.250527
				0.250344
				0.249772
				0.250046
				0.250184
				0.250114
				0.249317
				0.249446
				0.250428
				0.250272
				0.249965
				0.250107
				0.249915
				0.250312
				0.249555
				0.249707
				0.250492
				0.250248
				0.250318
				0.250049
				0.25017
				0.249712
				0.250006
				0.250191
				0.24957
				0.250486
				0.250309
				0.250215
				0.250211
				0.250002
				0.250054
				0.249977
				0.250348
				0.249858
				0.249887
				0.249709
				0.249992
				0.250193
				0.250178
				0.250405
				0.250238
				0.250108
				0.250114
				0.249568
				0.249576
				0.250039
				0.250313
				0.25019
				0.249719
				0.250052
				0.250183
				0.249961
				0.249637
				0.250403
				0.249925
				0.25018
				0.250218
				0.250026
				0.250158
				0.250013
				0.249887
				0.249803
				0.250095
				0.250384
				0.250246
				0.250163
				0.250167
				0.250026
				0.250074
				0.250317
				0.249992
				0.249754
				0.249994
				0.249963
				0.249926
				0.249802
				0.250322
				0.250096
				0.250167
				0.250181
				0.250048
				0.250131
				0.25003
				0.250164
				0.249881
				0.249988
				0.249678
				0.250378
			</DataArray>
			<DataArray type="Float64" Name="mach-number" Format="ascii">
				0.595049
				0.845952
				0.85069
				0.849241
				0.85005
				0.688914
				0.722385
				0.742872
				0.760918
				0.77654
				0.789912
				0.801243
				0.810376
				0.816468
				0.820523
				0.815831
				0.865838
				1.16315
				1.27436
				1.26853
				1.26198
				1.25711
				1.25235
				1.24692
				1.24072
				1.23279
				1.22336
				1.21479
				1.20411
				1.19272
				1.1814
				1.16011
				1.13998
				1.12532
				1.10758
				1.08479
				1.06194
				1.03772
				1.00912
				0.973045
				0.929912
				0.876478
				0.802933
				0.702114
				0.546914
				0.308097
				0.137111
				0.405478
				0.65681
				0.807542
				0.902238
				0.975015
				1.02706
				1.06685
				1.09978
				1.12956
				1.15747
				1.17763
				1.19778
				1.21555
				1.23424
				1.25284
				1.26958
				1.28559
				1.29936
				1.3115
				1.32226
				1.33334
				1.34372
				1.35322
				1.36093
				1.36717
				1.37237
				1.3749
				1.37618
				1.37957
				1.38416
				1.3913
				1.40339
				1.41261
				1.41365
				1.41262
				1.387
				0.896138
				0.721991
				0.707508
				0.687392
				0.666022
				0.631084
				0.848041
				0.850198
				0.850173
				0.850259
				0.850386
				0.850535
				0.850512
				0.849855
				0.849376
				0.84927
				0.849262
				0.849254
				0.849189
				0.849137
				0.849029
				0.848864
				0.848737
				0.848928
				0.850829
				0.850795
				0.850504
				0.850188
				0.850242
				0.849092
				0.264888
				0.282058
				0.440519
				0.425603
				0.357077
				0.564396
				0.604819
				0.71925
				0.403161
				0.407121
				0.537751
				0.626583
				0.516935
				0.723757
				0.82898
				0.495901
				0.445996
				0.444491
				0.628149
				0.713972
				0.81337
				0.811073
				0.911022
				0.721393
				0.491807
				0.48834
				0.60261
				0.876924
				0.975469
				0.888969
				0.567939
				0.707814
				0.798362
				0.648465
				0.50022
				0.928634
				1.02149
				0.512438
				0.547667
				1.05915
				0.515905
				1.00559
				0.971253
				0.79564
				0.723347
				0.952251
				0.861233
				1.09253
				1.03276
				0.552281
				0.549254
				0.649071
				0.99903
				1.12286
				0.913365
				0.602838
				0.553259
				0.868139
				0.608145
				0.791139
				1.05696
				0.713405
				0.66936
				0.550275
				0.607991
				1.14771
				1.03994
				1.08083
				0.957184
				0.566418
				0.593318
				1.16947
				0.790098
				1.10182
				0.570652
				0.730549
				1.07829
				0.930791
				0.989423
				0.849487
				0.648311
				1.18912
				1.119
				0.598585
				0.658815
				0.651411
				1.20909
				1.10333
				1.0168
				0.596669
				1.13758
				0.639545
				0.979881
				0.900837
				0.856594
				1.22824
				0.671345
				0.605971
				0.632465
				0.590283
				0.789444
				1.13132
				1.1586
				1.04356
				0.722874
				0.598626
				0.594041
				1.24693
				0.688951
				0.67019
				1.17527
				0.704324
				0.655291
				1.03021
				0.94305
				1.264
				1.15154
				1.06652
				1.18789
				0.610862
				0.627182
				1.27969
				0.790576
				0.622651
				0.694308
				1.19931
				1.17461
				1.054
				0.739094
				0.682293
				1.29347
				0.919742
				0.97137
				1.08699
				0.842982
				0.614191
				1.20975
				1.30592
				0.731688
				1.19436
				1.21936
				0.637067
				1.10881
				1.31769
				0.64147
				0.689082
				1.08797
				1.22841
				1.00115
				1.32896
				0.626413
				1.21429
				1.23611
				0.985248
				1.12951
				1.33945
				0.660399
				0.634161
				0.665377
				0.893345
				0.649192
				1.24264
				0.851499
				0.718006
				1.34862
				0.62506
				0.793679
				1.23275
				1.10795
				1.24831
				1.35633
				0.632378
				1.03029
				1.14466
				0.699809
				1.25375
				0.696466
				0.751271
				1.36262
				1.25985
				1.25032
				0.737437
				1.36709
				0.687777
				1.26606
				1.37004
				1.16314
				0.635767
				0.702076
				0.921013
				1.27173
				1.13849
				1.37325
				0.666126
				0.995333
				1.37752
				1.26591
				1.04972
				0.818644
				1.38391
				0.819248
				1.17577
				1.39338
				0.758808
				0.81793
				1.40233
				0.81232
				1.40722
				0.648625
				0.804578
				1.40889
				0.794331
				1.41062
				1.28086
				0.767846
				1.15675
				0.660994
				0.782048
				1.18749
				0.794191
				1.04148
				1.12094
				1.07758
				0.748387
				0.953544
				1.29467
				0.913239
				0.853074
				1.19881
				0.652406
				0.709525
				0.717496
				1.30725
				1.18284
				1.20887
				0.649564
				0.676659
				1.102
				0.699755
				1.31864
				1.21783
				0.655134
				0.991635
				1.32918
				0.665625
				1.19812
				0.676537
				1.22645
				1.1125
				0.6525
				1.33841
				1.23353
				1.34662
				1.22102
				1.24041
				0.849761
				0.667397
				1.09442
				0.664702
				0.656744
				1.35253
				0.970821
				1.1327
				1.24745
				1.00903
				0.798738
				1.35803
				0.690633
				1.25352
				0.739674
				1.36397
				1.23438
				1.25921
				1.36901
				0.720064
				1.14775
				1.15575
				1.37567
				0.903216
				0.888676
				1.38449
				0.748446
				0.815646
				1.38908
				1.25473
				0.815147
				1.3923
				0.724363
				1.04214
				0.812402
				1.39828
				0.806248
				1.40455
				0.716111
				1.16609
				0.714474
				0.796847
				0.702418
				0.893365
				1.36573
				0.786431
				0.773458
				0.681786
				0.66806
				0.715698
				1.26784
				0.75765
				0.679352
				0.691196
				1.17541
				1.14337
				1.28613
				1.07069
				0.803619
				0.952303
				1.18997
				0.904525
				1.01948
				1.29564
				0.761968
				0.670795
				0.848049
				1.19722
				1.31009
				1.20943
				0.725046
				0.729165
				0.678605
				1.31735
				0.675773
				0.681688
				1.18513
				1.21606
				1.32955
				1.10356
				1.22651
				0.688692
				1.33425
				0.703009
				0.723317
				0.681523
				0.681743
				1.23331
				1.34374
				0.713023
				0.696529
				1.24233
				0.684921
				1.3505
				1.24648
				1.00359
				1.3602
				0.692681
				0.940639
				0.86491
				1.23035
				1.36853
				1.22287
				1.07385
				1.0183
				1.3776
				0.835818
				1.13797
				0.816325
				1.37801
				0.697538
				0.813238
				1.38006
				0.813464
				1.38351
				0.811406
				0.772217
				1.39254
				0.801826
				1.39669
				0.885462
				0.791989
				1.12394
				0.779171
				0.766512
				0.713477
				0.737085
				0.765543
				1.25664
				0.68977
				1.1666
				0.735857
				0.751797
				0.699996
				0.734384
				0.734488
				0.698642
				0.7058
				1.12163
				0.716866
				1.28396
				1.04851
				1.18941
				0.991466
				0.811867
				0.934597
				0.773821
				0.701757
				1.30543
				1.21023
				1.32593
				0.745343
				1.16464
				0.708502
				0.914915
				1.22786
				0.703961
				1.08734
				0.740326
				1.34853
				0.703564
				1.15802
				0.711583
				0.709399
				0.714673
				1.36242
				0.865658
				0.891652
				0.701001
				0.726077
				0.744968
				0.721642
				1.36936
				0.817481
				0.731056
				1.20304
				0.724603
				1.38014
				0.809599
				0.716482
				0.907211
				1.25619
				0.776723
				0.858788
				1.12185
				1.0472
				0.983562
				0.814843
				0.712126
				0.706367
				0.717274
				1.23587
				1.15134
				0.755262
				0.781319
				0.753802
				0.718588
				0.748478
				1.26311
				1.09581
				1.17673
				0.747842
				0.724731
				0.961668
				0.795384
				1.02827
				0.728141
				0.739292
				1.28898
				0.827564
				0.91228
				1.19867
				0.765212
				0.790854
				1.31603
				0.720207
				1.21235
				0.73479
				0.725362
				0.887168
				1.14052
				0.73244
				1.33491
				1.02014
				1.06719
				0.760934
				0.727232
				1.34784
				0.72936
				0.845434
				0.838443
				1.3605
				0.725552
				0.822798
				0.858946
				1.30315
				0.731535
				0.759886
				1.17801
				0.763837
				0.809869
				0.78878
				0.746132
				1.10205
				0.743309
				0.736083
				1.01686
				0.96539
				1.21045
				0.725552
				0.721307
				0.723024
				1.13432
				0.742134
				0.765497
				0.799254
				1.24266
				0.771383
				0.850556
				1.16157
				0.760695
				0.737574
				0.772902
				1.0721
				0.929539
				0.808332
				1.27447
				1.00917
				1.18047
				0.746319
				0.901367
				0.758619
				0.747776
				1.29653
				0.744106
				1.12694
				0.781218
				1.31482
				0.912384
				1.11615
				1.33386
				0.834128
				0.752966
				1.34569
				1.04739
				0.744646
				1.05391
				0.745299
				0.826611
				0.803763
				0.736456
				0.775826
				0.752197
				0.752034
				0.743945
				1.15295
				0.763957
				1.08522
				0.849882
				0.780951
				0.996869
				0.754288
				0.762207
				0.765148
				0.948722
				1.19073
				1.11948
				0.758202
				0.742704
				0.743452
				0.811278
				0.883601
				0.780296
				1.22757
				0.759821
				1.14343
				0.780406
				0.792235
				0.745603
				1.25168
				1.05104
				0.78513
				1.14568
				0.756502
				0.773705
				0.990036
				1.27414
				0.831673
				0.987754
				1.29785
				0.886337
				0.764628
				0.92987
				0.858847
				0.798318
				0.775596
				0.765445
				1.31804
				0.757287
				1.27698
				1.09075
				0.845303
				0.899024
				0.822544
				0.755072
				0.762561
				1.02984
				0.770447
				0.761805
				1.13465
				1.07292
				0.789642
				0.769691
				0.763366
				0.762027
				0.796504
				0.985104
				1.17551
				0.772168
				1.10359
				0.778405
				0.928653
				0.770231
				0.783775
				0.873149
				0.793121
				1.19587
				1.1136
				0.764743
				0.758237
				0.826878
				0.7729
				0.864354
				1.22815
				0.813438
				1.07528
				0.77515
				0.776568
				1.03041
				0.798857
				1.2505
				0.928063
				0.975139
				1.28127
				0.816396
				0.774294
				0.797268
				1.29335
				0.845314
				1.09866
				0.790861
				0.922686
				0.780296
				0.774906
				0.791908
				0.790894
				1.08049
				0.781691
				1.02498
				0.778552
				0.834913
				0.785234
				0.763992
				1.12572
				1.05745
				0.787199
				0.784475
				0.802422
				0.965671
				0.921115
				0.848251
				0.779152
				0.832432
				0.812031
				1.182
				0.792253
				0.800957
				1.02791
				0.803577
				0.896769
				0.785169
				0.775066
				0.774713
				1.23715
				1.02901
				0.899225
				0.7878
				0.803606
				0.816284
				0.835525
				0.791255
				0.777246
				0.980543
				1.11021
				0.774012
				0.790005
				0.789176
				0.87236
				0.802945
				0.807538
				0.789119
				0.793414
				0.802766
				0.79255
				0.794503
				0.804516
				0.797648
				1.09789
				1.01843
				0.940512
				0.872596
				0.851918
				0.779165
				0.798633
				0.834988
				0.822361
				0.853848
				0.796656
				0.910116
				0.811937
				1.16044
				0.79008
				0.798659
				0.959608
				0.812289
				0.803792
				1.20854
				0.797482
				0.865757
				0.790301