<VTKFile type="UnstructuredGrid" version="0.1" byte_order="LittleEndian">
<UnstructuredGrid>
	<Piece NumberOfPoints="1485" NumberOfCells="2857">
		<CellData Scalars="density" Vectors="velocity">
			<DataArray type="Float64" Name="density" Format="ascii">
				1.15125
				1.14332
				1.14641
				1.10734
				1.12268
				1.12945
				1.1362
				1.09749
				1.09945
				1.07337
				1.07836
				1.09553
				1.12512
				1.1139
				1.13483
				1.06811
				1.13089
				1.10784
				1.08683
				1.09478
				1.07103
				1.06567
				1.12119
				1.11412
				1.11877
				1.05563
				1.11602
				1.0758
				1.07148
				1.09806
				1.10821
				1.05451
				1.08343
				1.0923
				1.07533
				1.04829
				1.05636
				1.05811
				1.12372
				1.07587
				1.10577
				1.11484
				1.04721
				1.11732
				1.06252
				1.06512
				1.12132
				1.09326
				1.04489
				1.05035
				1.08995
				1.11034
				1.05064
				1.06465
				1.09019
				1.08004
				1.0651
				1.04432
				1.07904
				1.11312
				1.05585
				1.05676
				1.04297
				1.04734
				1.10658
				1.10432
				1.10998
				1.04279
				1.04727
				1.04503
				1.11166
				1.04116
				1.04542
				1.09353
				1.04158
				1.10315
				1.06988
				1.04182
				1.06961
				1.05249
				1.08006
				1.0578
				1.09095
				1.05189
				1.05842
				1.11637
				1.07992
				1.04113
				1.11544
				1.04031
				1.04359
				1.09935
				1.04349
				1.1068
				1.10969
				1.08531
				1.04994
				1.04064
				1.04955
				1.09922
				1.10746
				1.07042
				1.08832
				1.11236
				1.07145
				1.03866
				1.04234
				1.05434
				1.07971
				1.0637
				1.05433
				1.04231
				1.06438
				1.07992
				1.10782
				0.970497
				1.03937
				1.04731
				1.03556
				1.04733
				1.09925
				1.09359
				1.04105
				1.10194
				1.10526
				1.0406
				1.08818
				1.03712
				1.05137
				1.05103
				1.10006
				1.07508
				1.09021
				1.03094
				1.11048
				1.10334
				1.0751
				1.04645
				1.05901
				1.10866
				1.04733
				1.06496
				1.05873
				1.03899
				1.0838
				0.968805
				1.06518
				1.03327
				1.03796
				1.08306
				1.10914
				1.02522
				1.0956
				1.04908
				0.969502
				1.04915
				1.09313
				1.03577
				1.02812
				1.04559
				1.09111
				1.04656
				1.09759
				1.03399
				1.10537
				1.01914
				1.08761
				1.05568
				1.05593
				1.10365
				1.07706
				1.02222
				0.963493
				0.985915
				0.995882
				0.985844
				1.09135
				1.07741
				1.03124
				1.04703
				1.06145
				1.04381
				1.01314
				1.04725
				1.07133
				1.06129
				1.10299
				1.02871
				1.04384
				1.08413
				1.07121
				1.08611
				1.09199
				1.01621
				1.08182
				0.98298
				1.02564
				1.00748
				0.967586
				0.987015
				1.05299
				0.970311
				1.05518
				1.09668
				1.02273
				1.01051
				1.04036
				1.04521
				1.09423
				0.968543
				1.03904
				1.04516
				1.00234
				1.09124
				1.01962
				1.09053
				1.09285
				1.0937
				1.00528
				1.08975
				1.05799
				1.05768
				1.01663
				1.07837
				0.981208
				0.956687
				0.997706
				1.03506
				1.05237
				1.0788
				0.982799
				1.00053
				1.09389
				1.06628
				1.05478
				1.03285
				1.04216
				1.01372
				1.07309
				1.06592
				1.07771
				1.04132
				0.993534
				1.07327
				1.01071
				1.09515
				0.996228
				1.08586
				0.961319
				1.08323
				0.985333
				1.02878
				0.965483
				1.00822
				0.989759
				1.08496
				1.08459
				1.05367
				1.02612
				0.992304
				1.05578
				0.986104
				1.00528
				1.08292
				1.03817
				1.04983
				0.986326
				1.05142
				1.03611
				0.988711
				0.964623
				1.04995
				1.00321
				1.02231
				0.982601
				0.98319
				1.00035
				1.06237
				1.0195
				1.09127
				0.985394
				1.08748
				1.0724
				1.07965
				1.06222
				0.972853
				0.998676
				0.980316
				1.07736
				0.953909
				1.03244
				0.98233
				1.05358
				1.05545
				1.07821
				1.0161
				0.995925
				1.04683
				0.977647
				1.02991
				1.05293
				1.06845
				0.979483
				1.05679
				1.07399
				1.06842
				0.959837
				1.04613
				1.01328
				0.981376
				0.994548
				0.975153
				0.978116
				1.0734
				0.956475
				0.976851
				0.973704
				0.991924
				1.074
				0.972854
				1.01038
				1.07303
				0.974427
				0.985258
				1.02591
				0.990776
				1.08023
				0.970715
				1.06462
				1.08573
				0.972177
				1.00759
				1.04195
				1.07284
				0.988308
				1.023
				1.062
				0.968707
				1.0414
				0.970095
				0.983807
				0.987312
				1.04852
				0.975353
				1.04464
				0.966837
				0.96813
				1.00514
				1.03898
				0.958687
				0.965059
				1.04918
				0.985009
				0.966288
				1.07866
				0.963368
				1.01966
				1.00241
				0.964527
				0.984109
				0.954508
				0.961705
				0.962849
				1.05205
				0.960031
				0.969143
				0.961207
				1.05573
				0.9584
				0.981978
				0.959604
				1.01664
				0.956807
				0.957957
				1.0004
				1.06283
				0.954718
				0.981144
				1.03513
				1.078
				1.06275
				0.955396
				1.06335
				0.997803
				0.979209
				1.06447
				1.057
				0.956231
				0.978382
				1.01358
				1.03119
				1.04549
				1.06224
				1.05586
				0.99609
				1.06689
				1.06383
				0.976595
				1.05427
				0.984157
				1.06907
				0.955023
				1.05426
				0.975852
				1.01054
				1.07468
				1.04313
				0.99364
				0.979352
				0.974207
				1.07582
				0.981157
				0.973493
				0.965074
				0.992168
				1.02816
				0.971971
				1.00808
				0.971335
				0.989914
				1.03344
				1.05552
				0.969907
				1.02455
				1.00504
				1.07056
				0.969292
				1.05949
				0.988606
				1.05875
				0.967956
				1.03753
				0.967405
				1.05894
				0.983295
				0.98645
				0.966169
				0.955426
				1.07277
				1.01331
				0.965585
				1.03409
				1.00298
				0.977996
				0.964415
				1.05188
				1.03596
				0.98531
				0.984104
				0.96389
				1.02135
				0.960269
				0.962796
				0.962215
				1.0001
				0.954209
				0.9611
				0.983401
				0.960634
				0.959452
				0.959004
				0.957842
				1.0673
				1.01803
				0.957325
				1.01648
				0.955478
				0.956428
				0.982309
				0.955149
				1.07286
				0.998418
				0.980361
				0.98049
				0.96423
				1.05481
				0.969527
				0.979501
				1.03201
				0.995684
				1.01533
				0.977932
				1.06565
				1.05766
				1.06038
				1.02576
				1.04539
				1.01706
				1.01739
				0.97697
				1.02888
				0.994255
				1.05717
				1.06397
				1.06181
				1.01191
				0.977853
				0.975472
				1.04404
				1.0542
				0.974591
				1.06211
				0.985769
				0.973273
				1.05921
				0.958828
				1.05268
				0.972448
				1.00959
				0.990463
				0.99173
				0.971161
				1.02404
				0.970391
				0.988103
				0.982051
				1.00655
				0.969244
				0.968532
				1.0204
				1.06171
				0.967439
				0.987017
				1.0614
				1.04711
				0.966697
				1.03971
				0.965608
				1.02473
				0.965036
				1.00464
				0.984807
				1.01199
				0.964
				0.963345
				0.955322
				1.03574
				0.962266
				0.961799
				0.983827
				0.960774
				0.960147
				1.03738
				1.00148
				1.04681
				0.985375
				0.959141
				1.01856
				0.955632
				0.956729
				0.958591
				0.957696
				0.956197
				0.984254
				1.00712
				0.976103
				0.981844
				1.01095
				1.04429
				1.04615
				0.980896
				1.00007
				1.01569
				0.956045
				0.97902
				1.01579
				1.01942
				0.997235
				1.01337
				1.03005
				0.978207
				0.961266
				0.976583
				1.01191
				0.995928
				0.98506
				1.02651
				0.975707
				1.03239
				1.04853
				0.974161
				0.993245
				1.00856
				1.01334
				1.01236
				1.05294
				1.05013
				0.973457
				1.01724
				1.04165
				0.972132
				0.992302
				1.05496
				1.03054
				0.971291
				1.04842
				1.0377
				1.03128
				1.00737
				0.971855
				0.970017
				1.04696
				0.989706
				0.984802
				0.96939
				0.957005
				0.968317
				0.98889
				0.967463
				1.00458
				1.02697
				0.96652
				0.977373
				0.965798
				0.986717
				0.967281
				0.983673
				0.965289
				0.964042
				1.04947
				0.9794
				0.967095
				0.955008
				1.0603
				0.963494
				1.00186
				0.985944
				0.96254
				0.96189
				0.955693
				0.960872
				1.00234
				0.960283
				0.95944
				1.00544
				0.958794
				1.03035
				1.01681
				0.98391
				1.05193
				0.955726
				0.957404
				0.957125
				1.03191
				0.9988
				0.983034
				1.01337
				0.981243
				1.03058
				0.998039
				0.985073
				0.98071
				0.984724
				1.01019
				1.01194
				1.00231
				1.00388
				1.00227
				0.995415
				0.979143
				0.956507
				1.01761
				1.00921
				0.978086
				0.988612
				1.00344
				0.993519
				0.976672
				1.01075
				1.00219
				0.97636
				1.01374
				1.02307
				0.990837
				0.97518
				1.03021
				0.974002
				1.00192
				1.03241
				1.01897
				0.97275
				1.0389
				0.990259
				1.01893
				0.972664
				1.00632
				1.02802
				0.981343
				0.971791
				1.02438
				1.03463
				0.970535
				0.988004
				0.969158
				1.0403
				1.00354
				0.969674
				1.01823
				0.969448
				1.02432
				0.988866
				0.986644
				0.9687
				0.967447
				0.965951
				1.00149
				0.966593
				0.96588
				0.984738
				0.960426
				0.964792
				1.00685
				0.963539
				0.963074
				0.964138
				1.03015
				0.963927
				0.962157
				0.96059
				0.959074
				0.959088
				0.983805
				1.03699
				1.03252
				1.00306
				0.981981
				0.986829
				0.981096
				1.00138
				1.00809
				0.998332
				0.979632
				1.00258
				1.01085
				0.960496
				0.978551
				0.99609
				1.00735
				0.960163
				0.988462
				0.977174
				1.00784
				0.976479
				0.998183
				0.989142
				0.988064
				0.980868
				0.975286
				1.00119
				1.0005
				1.00064
				0.974123
				0.995298
				0.974966
				1.00142
				1.01467
				1.00109
				1.00671
				1.00199
				0.97324
				1.00587
				1.0015
				0.988376
				0.972663
				0.992165
				0.97155
				1.01347
				0.970423
				0.990373
				0.960587
				1.01999
				0.969898
				1.00088
				1.007
				1.0255
				0.96932
				0.991507
				0.968282
				0.967248
				1.01512
				1.01968
				1.00155
				1.02048
				0.966995
				0.983469
				0.966356
				0.989678
				1.02068
				0.965501
				0.958525
				0.964397
				1.00731
				1.02134
				0.964498
				1.00017
				0.964016
				0.960286
				0.963561
				0.999455
				0.98733
				0.961404
				0.962476
				0.959683
				0.988169
				0.985836
				1.02013
				0.959094
				0.986607
				0.958638
				0.957914
				0.984884
				1.00018
				0.983572
				0.990257
				1.00635
				1.00032
				1.00766
				0.982373
				0.986712
				1.00491
				0.982556
				1.00501
				0.9717
				0.980976
				0.992529
				0.98059
				1.00012
				1.00453
				0.979645
				0.99482
				0.991991
				1.00011
				0.979403
				0.993019
				0.977896
				0.978124
				1.006
				0.990126
				1.0002
				1.00012
				0.977475
				0.976803
				1.00964
				1.00061
				1.00098
				0.976758
				1.00088
				0.975296
				0.988825
				1.00017
				0.976001
				1.00081
				0.975905
				0.99322
				0.974452
				1.00818
				0.987092
				0.973009
				1.00151
				0.972441
				0.974252
				1.00986
				0.975484
				1.00008
				0.971972
				0.973188
				0.967814
				0.975086
				0.967493
				0.961364
				1.0033
				1.00007
				1.00736
				1.00636
				1.00843
				1.00802
				0.984404
				0.989074
				1.00302
				0.993582
				0.983083
				0.972753
				0.960337
				1.00651
				1.00005
				0.974514
				1.00001
				0.998262
				1.00345
				0.981285
				0.971484
				1.00344
				0.980033
				0.96423
				0.99729
				0.994007
				1.00011
				0.992784
				1.00067
				1.00225
				0.978767
				1.00268
				0.97742
				1.00005
				1.00061
				0.994922
				1.00004
				0.990562
				0.976673
				0.996212
				0.975111
				0.993383
				1.00299
				0.974878
				0.995576
				0.994985
				1.00001
				0.973646
				0.971171
				1.00233
				0.974329
				0.983069
				0.974061
				1.00252
				1.00042
				0.97801
				1.00012
				0.993125
				1.00028
				1.0002
				1.00005
				1.0001
				0.972213
				0.994402
				1.00004
				0.994965
				1.00092
				0.999237
				1.00125
				0.98017
				1.00399
				0.994398
				0.979746
				1.00193
				1.00329
				1.00194
				1.00091
				0.994131
				1
				0.972222
				0.994915
				0.993562
				0.996726
				1.00001
				1
				1.0007
				0.99806
				1.00106
				0.976622
				1.00001
				0.993496
				0.997387
				0.992847
				1.00083
				0.996713
				1
				0.992962
				1
				1.00047
				1.00036
				0.992179
				0.992494
				0.995969
				0.99203
				0.986837
				0.996775
				0.992198
				0.997585
				1.00033
				0.986288
				0.988691
				0.99649
				0.99626
				1.00169
				1.0001
				1.00077
				0.996576
				1.00127
				1.00003
				0.98586
				0.99192
				1.00001
				0.990572
				1.00002
				0.996009
				0.99987
				1.00003
				1.00001
				1
				0.995625
				1.00002
				0.996712
				1.00053
				1.00042
				1
				1.00041
				1.00048
				1.00045
				0.995499
				1.00048
				0.995138
				0.988801
				1.00034
				0.999651
				0.998196
				0.990536
				0.997197
				0.991154
				0.993432
				1
				0.99512
				0.999517
				1
				1.00052
				0.994647
				1
				1
				0.994819
				1.00029
				0.994269
				0.98765
				0.997322
				1
				1
				0.994645
				1.00003
				0.99422
				0.99942
				0.998604
				0.998271
				0.99355
				1.00005
				0.999322
				0.999004
				0.998849
				1.00003
				1.00021
				1.0001
				0.992472
				1.00004
				0.999295
				0.999985
				1.00017
				0.999224
				0.992659
				1
				0.998525
				0.998688
				0.999852
				1.00002
				1.00006
				1
				1
				1.00001
				0.999218
				1
				1.00024
				1
				1
				0.999142
				1.00006
				1.0002
				0.995508
				0.99633
				0.999161
				1.00006
				0.999746
				0.999026
				1
				1.00006
				0.99905
				0.999663
				0.999107
				0.998879
				0.994261
				1
				1
				0.999044
				1.00005
				1
				0.998791
				1
				1
				0.996356
				0.998866
				0.99963
				1.00001
				0.999576
				0.998305
				0.999641
				0.999471
				1.00003
				0.999629
				1.0001
				0.996071
				0.99963
				0.999345
				0.999999
				1.00001
				0.998764
				0.99957
				0.999526
				1.00007
				0.999987
				1.00001
				0.999624
				0.999534
				1.00002
				1
				1.00001
				1
				1
				0.999475
				1
				1.00001
				1
				1.00001
				1
				0.999971
				0.999507
				1
				0.999338
				1.00001
				0.999961
				1
				0.99981
				0.999487
				1
				0.999306
				1.00003
				0.998539
				0.999797
				0.999432
				0.999353
				0.998976
				1
				1
				0.999763
				0.999675
				1.00002
				1
				1
				0.999955
				1
				0.999263
				1
				0.999948
				0.999387
				1
				0.999068
				0.999292
				0.999948
				1
				0.999853
				0.999941
				0.999995
				0.99988
				0.999847
				0.999901
				1
				0.999987
				0.999943
				0.999394
				1
				0.999932
				0.99994
				1
				0.99992
				1
				1.00001
				1
				0.999999
				0.999909
				0.999909
				1
				0.999763
				1
				1
				0.999938
				0.99998
				1
				1.00001
				1
				0.99993
				0.999879
				0.999975
				1
				1
				1
				1
				1
				0.99993
				1
				0.999897
				0.999974
				0.999479
				1
				1
				1
				1
				0.999923
				0.999484
				0.999974
				1
				1
				0.999971
				1
				1
				0.999971
				1
				0.999808
				1
				0.999968
				1
				0.99996
				0.999968
				1
				0.99997
				0.999973
				0.999962
				0.999968
				0.999953
				0.999928
				1
				0.99984
				0.999969
				1
				1
				1
				0.999968
				0.999964
				1
				0.999984
				1
				0.999968
				0.999934
				1
				1
				1
				1
				1
				1
				1
				1
				1
				1
				1
				1
				0.999994
				1
				1
				1
				1
				0.999999
				1
				0.999965
				0.999942
				0.999991
				1
				1
				0.999998
				1
				1
				0.999977
				1
				0.999999
				1
				1
				1
				1
				0.999982
				0.999999
				0.999995
				0.999923
				0.999998
				1
				1
				1
				0.999995
				0.999993
				0.999992
				0.999999
				1
				0.999999
				0.999999
				0.999987
				0.999972
				1
				0.999999
				0.999999
				1
				1
				1
				1
				1
				1
				1
				1
				1
				1
				1
				1
				1
				0.999996
				1
				1
				0.999999
				1
				1
				0.999999
				1
				1
				0.999998
				1
				0.999976
				1
				0.999996
				0.999999
				0.999993
				0.999998
				0.999999
				0.999999
				1
				1
				0.999999
				1
				0.999999
				1
				1
				1
				1
				0.999998
				0.999995
				1
				0.999999
				0.999998
				0.999994
				1
				0.999999
				0.999999
				0.999998
				1
				0.999996
				1
				1
				1
				1
				1
				1
				1
				1
				1
				1
				1
				1
				1
				1
				1
				1
				1
				1
				1
				1
				0.999999
				1
				1
				1
				1
				1
				1
				1
				1
				1
				1
				1
				1
				1
				1
				1
				1
				0.999999
				1
				1
				1
				1
				1
				1
				1
				1
				1
				1
				1
				1
				1
				1
				1
				1
				1
				1
				1
				1
				1
				1
				1
				1
				1
				1
				1
				1
				1
				1
				1
				1
				1
				1
				1
				1
				1
				0.999999
				1
				1
				1
				1
				1
				1
				1
				1
				1
				1
				1
				1
				1
				1
				1
				1
				1
				1
				1
				1
				1
				1
				1
				1
				1
				1
				1
				1
				1
				1
				1
				1
				1
				1
				1
				1
				1
				1
				1
				1
				1
				1
				1
				1
				1
				1
				1
				1
				1
				1
				1
				1
				1
				1
				1
				1
				1
				1
				1
				1
				1
				1
				1
				1
				1
				1
				1
				1
				1
				1
				1
				1
				1
				1
				1
				1
				1
				1
				1
				1
				1
				1
				1
				1
				1
				1
				1
				1
				1
				1
				1
				1
				1
				1
				1
				1
				1
				1
				1
				1
				1
				1
				1
				1
				1
				1
				1
				1
				1
				1
				1
				1
				1
				1
				1
				1
				1
				1
				1
				1
				1
				1
				1
				1
				1
				1
				1
				1
				1
				1
				1
				1
				1
				1
				1
				1
				1
				1
				1
				1
				1
				1
				1
				1
				1
				1
				1
				1
				1
				1
				1
				1
				1
				1
				1
				1
				1
				1
				1
				1
				1
				1
				1
				1
				1
				1
				1
				1
				1
				1
				1
				1
				1
				1
				1
				1
				1
				1
				1
				1
				1
				1
				1
				1
				1
				1
				1
				1
				1
				1
				1
				1
				1
				1
				1
				1
				1
				1
				1
				1
				1
				1
				1
				1
				1
				1
				1
				1
				1
				1
				1
				1
				1
				1
				1
				1
				1
				1
				1
				1
				1
				1
				1
				1
				1
				1
				1
				1
				1
				1
				1
				1
				1
				1
				1
				1
				1
				1
				1
				1
				1
				1
				1
				1
				1
				1
				1
				1
				1
				1
				1
				1
				1
				1
				1
				1
				1
				1
				1
				1
				1
				1
				1
				1
				1
				1
				1
				1
				1
				1
				1
				1
				1
				1
				1
				1
				1
				1
				1
				1
				1
				1
				1
				1
				1
				1
				1
				1
				1
				1
				1
				1
				1
				1
				1
				1
				1
				1
				1
				1
				1
				1
				1
				1
				1
				1
				1
				1
				1
				1
				1
				1
				1
				1
				1
				1
				1
				1
				1
				1
				1
				1
				1
				1
				1
				1
				1
				1
				1
				1
				1
				1
				1
				1
				1
				1
				1
				1
				1
				1
				1
				1
				1
				1
				1
				1
				1
				1
				1
				1
				1
				1
				1
				1
				1
				1
				1
				1
				1
				1
				1
				1
				1
				1
				1
				1
				1
				1
				1
				1
				1
				1
				1
				1
				1
				1
				1
				1
				1
				1
				1
				1
				1
				1
				1
				1
				1
				1
				1
				1
				1
				1
				1
				1
				1
				1
				1
				1
				1
				1
				1
				1
				1
				1
				1
				1
				1
				1
				1
				1
				1
				1
				1
				1
				1
				1
				1
				1
				1
				1
				1
				1
				1
				1
				1
				1
				1
				1
				1
				1
				1
				1
				1
				1
				1
				1
				1
				1
				1
				1
				1
				1
				1
				1
				1
				1
				1
				1
				1
				1
				1
				1
				1
				1
				1
				1
				1
				1
				1
				1
				1
				1
				1
				1
				1
				1
				1
				1
				1
				1
				1
				1
				1
				1
				1
				1
				1
				1
				1
				1
				1
				1
				1
				1
				1
				1
				1
				1
				1
				1
				1
				1
				1
				1
				1
				1
				1
				1
				1
				1
				1
				1
				1
				1
				1
				1
				1
				1
				1
				1
				1
				1
				1
				1
				1
				1
				1
				1
				1
				1
				1
				1
				1
				1
				1
				1
				1
				1
				1
				1
				1
				1
				1
				1
				1
				1
				1
				1
				1
				1
				1
				1
				1
				1
				1
				1
				1
				1
				1
				1
				1
				1
				1
				1
				1
				1
				1
				1
				1
				1
				1
				1
				1
				1
				1
				1
				1
				1
				1
				1
				1
				1
				1
				1
				1
				1
				1
				1
				1
				1
				1
				1
				1
				1
				1
				1
				1
				1
				1
				1
				1
				1
				1
				1
				1
				1
				1
				1
				1
				1
				1
				1
				1
				1
				1
				1
				1
				1
				1
				1
				1
				1
				1
				1
				1
				1
				1
				1
				1
				1
				1
				1
				1
				1
				1
				1
				1
				1
				1
				1
				1
				1
				1
				1
				1
				1
				1
				1
				1
				1
				1
				1
				1
				1
				1
				1
				1
				1
				1
				1
				1
				1
				1
				1
				1
				1
				1
				1
				1
				1
				1
				1
				1
				1
				1
				1
				1
				1
				1
				1
				1
				1
				1
				1
				1
				1
				1
				1
				1
				1
				1
				1
				1
				1
				1
				1
				1
				1
				1
				1
				1
				1
				1
				1
				1
				1
				1
				1
				1
				1
				1
				1
				1
				1
				1
				1
				1
				1
				1
				1
				1
				1
				1
				1
				1
				1
				1
				1
				1
				1
				1
				1
				1
				1
				1
				1
				1
				1
				1
				1
				1
				1
				1
				1
				1
				1
				1
				1
				1
				1
				1
				1
				1
				1
				1
				1
				1
				1
				1
				1
				1
				1
				1
				1
				1
				1
				1
				1
				1
				1
				1
				1
				1
				1
				1
				1
				1
				1
				1
				1
				1
				1
				1
				1
				1
				1
				1
				1
				1
				1
				1
				1
				1
				1
				1
				1
				1
				1
				1
				1
				1
				1
				1
				1
				1
				1
				1
				1
				1
				1
				1
				1
				1
				1
				1
				1
				1
				1
				1
				1
				1
				1
				1
				1
				1
				1
				1
				1
				1
				1
				1
				1
				1
				1
				1
				1
				1
				1
				1
				1
				1
				1
				1
				1
				1
				1
				1
				1
				1
				1
				1
				1
				1
				1
				1
				1
				1
				1
				1
				1
				1
				1
				1
				1
				1
				1
				1
				1
				1
				1
				1
				1
				1
				1
				1
				1
				1
				1
				1
				1
				1
				1
				1
				1
				1
				1
				1
				1
				1
				1
				1
				1
				1
				1
				1
				1
				1
				1
				1
				1
				1
				1
				1
				1
				1
				1
				1
				1
				1
				1
				1
				1
				1
				1
				1
				1
				1
				1
				1
				1
				1
				1
				1
				1
				1
				1
				1
				1
				1
				1
				1
				1
				1
				1
				1
				1
				1
				1
				1
				1
				1
				1
				1
				1
				1
				1
				1
				1
				1
				1
				1
				1
				1
				1
				1
				1
				1
				1
				1
				1
				1
				1
				1
				1
				1
				1
				1
				1
				1
				1
				1
				1
				1
				1
				1
				1
				1
				1
				1
				1
				1
				1
				1
				1
				1
				1
				1
				1
				1
				1
				1
				1
				1
				1
				1
				1
				1
				1
				1
				1
				1
				1
				1
				1
				1
				1
				1
				1
				1
				1
				1
				1
				1
				1
				1
				1
				1
				1
				1
				1
				1
				1
				1
				1
				1
				1
				1
				1
				1
				1
				1
				1
				1
				1
				1
				1
				1
				1
				1
				1
				1
				1
				1
				1
				1
				1
				1
				1
				1
				1
				1
				1
				1
				1
				1
				1
				1
				1
				1
				1
				1
				1
				1
				1
				1
				1
				1
				1
				1
				1
				1
				1
				1
				1
				1
				1
				1
				1
				1
				1
				1
				1
				1
				1
				1
				1
				1
				1
				1
				1
				1
				1
				1
				1
				1
				1
				1
				1
				1
				1
				1
				1
				1
				1
				1
				1
				1
				1
				1
				1
				1
				1
				1
				1
				1
				1
				1
				1
				1
				1
				1
				1
				1
				1
				1
				1
				1
				1
				1
				1
				1
				1
				1
				1
				1
				1
				1
				1
				1
				1
				1
				1
				1
				1
				1
				1
				1
				1
				1
				1
				1
				1
				1
				1
				1
				1
				1
				1
				1
				1
				1
				1
				1
				1
				1
				1
				1
				1
				1
				1
				1
				1
				1
				1
				1
				1
				1
				1
				1
				1
				1
				1
				1
				1
				1
				1
				1
				1
				1
				1
				1
				1
				1
				1
				1
				1
				1
				1
				1
				1
				1
				1
				1
				1
				1
				1
				1
				1
				1
				1
				1
				1
				1
				1
				1
				1
				1
				1
				1
				1
				1
				1
				1
				1
				1
				1
				1
				1
				1
				1
				1
				1
				1
				1
				1
				1
				1
				1
				1
				1
				1
				1
				1
				1
				1
				1
				1
				1
				1
				1
				1
				1
				1
				1
				1
				1
				1
				1
				1
				1
				1
				1
				1
				1
				1
				1
				1
				1
				1
				1
				1
				1
				1
				1
				1
				1
				1
				1
				1
				1
				1
				1
				1
				1
				1
				1
				1
				1
				1
				1
				1
				1
				1
				1
				1
				1
				1
				1
				1
				1
				1
				1
				1
				1
				1
				1
				1
				1
				1
				1
				1
				1
				1
				1
				1
				1
				1
				1
				1
				1
				1
				1
				1
				1
				1
				1
				1
				1
				1
				1
				1
				1
				1
				1
				1
				1
				1
				1
				1
				1
				1
				1
				1
				1
				1
				1
				1
				1
				1
				1
				1
				1
				1
				1
				1
				1
				1
				1
				1
				1
				1
				1
				1
				1
				1
				1
				1
				1
				1
				1
				1
				1
				1
				1
				1
				1
				1
				1
				1
				1
				1
				1
				1
				1
				1
				1
				1
				1
				1
				1
				1
				1
				1
				1
				1
				1
				1
				1
				1
				1
				1
				1
				1
				1
				1
				1
				1
				1
				1
				1
				1
				1
				1
				1
				1
				1
				1
				1
				1
				1
				1
				1
				1
				1
				1
				1
				1
				1
				1
				1
				1
				1
				1
				1
				1
				1
				1
				1
			</DataArray>
			<DataArray type="Float64" Name="mach-number" Format="ascii">
				0.084259
				0.0939896
				0.0697977
				0.215778
				0.171643
				0.177806
				0.119906
				0.206256
				0.237525
				0.293746
				0.278798
				0.270691
				0.159436
				0.183956
				0.16339
				0.293451
				0.178887
				0.236997
				0.279294
				0.262754
				0.322825
				0.321219
				0.20979
				0.240222
				0.178513
				0.334982
				0.192884
				0.315173
				0.314784
				0.263143
				0.223086
				0.329777
				0.302834
				0.29799
				0.336213
				0.359424
				0.348225
				0.352008
				0.205815
				0.335065
				0.2393
				0.208882
				0.355871
				0.231675
				0.345788
				0.345971
				0.212355
				0.27392
				0.375615
				0.367445
				0.284893
				0.261627
				0.370821
				0.359716
				0.288902
				0.325082
				0.360235
				0.372703
				0.325116
				0.21711
				0.366391
				0.367641
				0.388124
				0.381257
				0.237192
				0.274501
				0.245313
				0.385708
				0.384153
				0.392145
				0.220436
				0.404123
				0.394234
				0.310895
				0.397472
				0.254267
				0.350572
				0.395447
				0.351126
				0.380139
				0.339596
				0.375427
				0.311653
				0.382281
				0.377027
				0.232752
				0.340154
				0.402912
				0.24068
				0.408959
				0.400392
				0.270866
				0.401908
				0.243734
				0.263296
				0.300738
				0.390557
				0.408202
				0.392298
				0.277361
				0.240944
				0.361
				0.303912
				0.244192
				0.360626
				0.41165
				0.406596
				0.386238
				0.327426
				0.368225
				0.388049
				0.407604
				0.369015
				0.330105
				0.246621
				0.337408
				0.411273
				0.398756
				0.412441
				0.399678
				0.293424
				0.292972
				0.410912
				0.264979
				0.266076
				0.411321
				0.316999
				0.412668
				0.39518
				0.396496
				0.270757
				0.350239
				0.319514
				0.411575
				0.254085
				0.249922
				0.350395
				0.404447
				0.380299
				0.255933
				0.404671
				0.374626
				0.381756
				0.413023
				0.339896
				0.358209
				0.375709
				0.412302
				0.413026
				0.340646
				0.264613
				0.409444
				0.290194
				0.401919
				0.339369
				0.402359
				0.297865
				0.413384
				0.410648
				0.4081
				0.305186
				0.408097
				0.268586
				0.412869
				0.283344
				0.406781
				0.313596
				0.39003
				0.390868
				0.291232
				0.357514
				0.40817
				0.368918
				0.320573
				0.334656
				0.324158
				0.266227
				0.358289
				0.412217
				0.406605
				0.384789
				0.410126
				0.404148
				0.407179
				0.364905
				0.385805
				0.269123
				0.411219
				0.409723
				0.331881
				0.366199
				0.270254
				0.272968
				0.405442
				0.332664
				0.340299
				0.409992
				0.401695
				0.362477
				0.343978
				0.397591
				0.352411
				0.397006
				0.305673
				0.408664
				0.402874
				0.410458
				0.409656
				0.321739
				0.356669
				0.409712
				0.40938
				0.399539
				0.287265
				0.407245
				0.280552
				0.289833
				0.291047
				0.400626
				0.324862
				0.392968
				0.393533
				0.40589
				0.349496
				0.340683
				0.378956
				0.397641
				0.409454
				0.401315
				0.349754
				0.342398
				0.398672
				0.280992
				0.37724
				0.401453
				0.408276
				0.410668
				0.404517
				0.370181
				0.378289
				0.28371
				0.410026
				0.396014
				0.371286
				0.403285
				0.289841
				0.396969
				0.340783
				0.373267
				0.289117
				0.34887
				0.407374
				0.364452
				0.402061
				0.394596
				0.341272
				0.306871
				0.399299
				0.40602
				0.395484
				0.399285
				0.348481
				0.400927
				0.318196
				0.41022
				0.405435
				0.393355
				0.40401
				0.409073
				0.394178
				0.368673
				0.307398
				0.399938
				0.404635
				0.341817
				0.39224
				0.398878
				0.386971
				0.403378
				0.303212
				0.393006
				0.309676
				0.300104
				0.323644
				0.387225
				0.355479
				0.398087
				0.391243
				0.356912
				0.384245
				0.408509
				0.391932
				0.402683
				0.303993
				0.357263
				0.402069
				0.397088
				0.406083
				0.390375
				0.407113
				0.40269
				0.381797
				0.390965
				0.30886
				0.362754
				0.381884
				0.374492
				0.405038
				0.400884
				0.351179
				0.396469
				0.389574
				0.348224
				0.363559
				0.380949
				0.390085
				0.353097
				0.395548
				0.304056
				0.38888
				0.399727
				0.335602
				0.389321
				0.352745
				0.406001
				0.395059
				0.319095
				0.388228
				0.38955
				0.320686
				0.388629
				0.39866
				0.318541
				0.337134
				0.394202
				0.40465
				0.392004
				0.387718
				0.40568
				0.388049
				0.352797
				0.393803
				0.406003
				0.348409
				0.331129
				0.387234
				0.387526
				0.39776
				0.403954
				0.377741
				0.386893
				0.404179
				0.393005
				0.387104
				0.332194
				0.386551
				0.403241
				0.39677
				0.386723
				0.39266
				0.385729
				0.386347
				0.386451
				0.324877
				0.386221
				0.36107