<VTKFile type="UnstructuredGrid" version="0.1" byte_order="LittleEndian">
<UnstructuredGrid>
	<Piece NumberOfPoints="1485" NumberOfCells="2857">
		<CellData Scalars="density" Vectors="velocity">
			<DataArray type="Float64" Name="density" Format="ascii">
				1.1247
				1.11287
				1.11406
				1.07747
				1.09771
				1.10255
				1.10986
				1.07083
				1.07017
				1.04475
				1.05012
				1.06756
				1.09461
				1.09004
				1.1108
				1.0386
				1.10813
				1.07892
				1.05951
				1.06558
				1.0419
				1.03752
				1.09537
				1.08512
				1.09493
				1.02808
				1.09295
				1.04795
				1.04373
				1.07139
				1.0822
				1.02509
				1.05427
				1.06395
				1.04622
				1.01923
				1.02694
				1.02989
				1.09759
				1.04617
				1.07977
				1.08669
				1.01776
				1.09137
				1.03489
				1.03682
				1.09679
				1.06729
				1.01454
				1.02041
				1.06302
				1.08142
				1.02188
				1.03486
				1.06134
				1.05184
				1.03549
				1.01397
				1.05071
				1.08705
				1.02691
				1.02757
				1.01174
				1.01674
				1.08031
				1.07533
				1.08431
				1.01199
				1.01696
				1.0141
				1.08577
				1.00896
				1.01366
				1.06688
				1.00979
				1.07525
				1.03941
				1.01041
				1.03962
				1.02161
				1.05046
				1.02899
				1.06336
				1.02128
				1.02881
				1.08898
				1.05093
				1.00931
				1.08729
				1.00836
				1.01256
				1.07144
				1.01187
				1.07822
				1.07936
				1.06032
				1.01803
				1.00854
				1.01723
				1.06921
				1.08042
				1.04034
				1.05918
				1.08564
				1.04026
				1.008
				1.01119
				1.02428
				1.05011
				1.03437
				1.02361
				1.01074
				1.03413
				1.05117
				1.07901
				0.979844
				1.00795
				1.0156
				1.00772
				1.015
				1.06941
				1.06484
				1.01014
				1.0722
				1.0772
				1.01001
				1.05754
				1.00743
				1.0201
				1.01926
				1.07057
				1.04282
				1.06117
				1.00742
				1.08161
				1.07823
				1.0432
				1.01412
				1.02797
				1.08139
				1.01359
				1.03378
				1.02704
				1.00938
				1.0524
				0.980341
				1.03353
				1.00691
				1.00948
				1.05274
				1.07863
				1.00705
				1.06553
				1.01761
				0.979084
				1.017
				1.06222
				1.00869
				1.00639
				1.0128
				1.06001
				1.01256
				1.07227
				1.009
				1.07191
				1.0067
				1.0573
				1.0238
				1.02288
				1.07091
				1.04305
				1.00592
				0.977427
				0.994334
				1.00401
				0.99464
				1.07557
				1.04346
				1.00792
				1.01579
				1.02999
				1.0118
				1.00641
				1.01553
				1.03791
				1.02895
				1.07795
				1.00846
				1.01177
				1.05299
				1.03747
				1.07555
				1.07243
				1.00561
				1.05128
				0.989669
				1.00712
				1.00583
				0.979124
				0.992838
				1.02067
				0.980425
				1.02036
				1.06525
				1.0079
				1.00542
				1.01084
				1.01447
				1.06227
				0.978365
				1.0111
				1.01424
				1.00486
				1.06746
				1.00653
				1.0771
				1.07189
				1.06731
				1.00499
				1.05919
				1.02553
				1.02434
				1.00752
				1.0451
				0.988411
				0.973309
				1.00337
				1.01005
				1.0187
				1.04542
				0.989377
				1.00398
				1.07603
				1.03175
				1.01863
				1.01048
				1.01309
				1.00612
				1.03707
				1.03132
				1.07323
				1.01317
				1.00097
				1.03792
				1.0068
				1.07299
				1.00236
				1.05323
				0.975761
				1.07619
				0.990425
				1.00954
				0.977997
				1.00542
				0.997859
				1.0531
				1.06202
				1.02045
				1.00995
				0.999922
				1.02192
				0.99121
				1.00565
				1.05812
				1.01184
				1.01691
				0.994145
				1.01693
				1.01217
				0.996631
				0.976872
				1.0736
				1.00466
				1.0091
				0.988445
				0.990331
				1.00439
				1.02691
				1.00963
				1.06784
				0.992952
				1.06382
				1.06903
				1.05708
				1.02665
				0.982886
				1.00326
				0.98651
				1.0449
				0.968609
				1.01095
				0.989095
				1.01993
				1.07247
				1.0456
				1.00878
				1.00232
				1.01578
				0.982994
				1.01141
				1.01981
				1.03224
				0.985438
				1.06885
				1.04009
				1.03312
				0.974857
				1.01593
				1.00921
				0.986377
				1.00129
				0.979723
				0.986405
				1.04027
				0.971596
				0.981992
				0.982944
				0.99963
				1.07357
				0.976792
				1.00841
				1.05181
				0.978886
				0.988549
				1.00988
				0.998359
				1.06072
				0.974093
				1.02704
				1.06281
				0.976027
				1.00835
				1.07343
				1.05149
				0.996127
				1.01066
				1.02536
				0.971632
				1.01421
				0.973433
				0.987958
				0.99495
				1.01665
				0.984067
				1.07506
				0.969332
				0.971017
				1.00738
				1.01495
				0.97319
				0.967204
				1.01745
				0.992427
				0.968785
				1.05666
				0.965192
				1.00944
				1.00664
				0.966679
				0.991102
				0.964308
				0.963313
				0.964694
				1.07464
				0.961672
				0.981188
				0.962844
				1.06495
				0.960693
				0.988513
				0.961347
				1.00996
				0.961052
				0.960708
				1.00572
				1.0261
				0.96719
				0.987395
				1.01364
				1.05612
				1.06418
				0.963277
				1.06967
				1.00446
				0.984897
				1.04648
				1.02223
				0.961585
				0.983782
				1.00857
				1.01391
				1.01657
				1.04749
				1.02314
				1.00319
				1.03438
				1.02627
				0.981437
				1.07312
				0.987302
				1.03393
				0.97083
				1.06968
				0.980548
				1.00889
				1.03899
				1.01619
				1.00124
				0.985149
				0.97838
				1.03891
				0.985951
				0.977522
				0.978183
				1.00014
				1.01255
				0.975516
				1.00812
				0.974823
				0.997709
				1.07085
				1.06126
				0.972961
				1.01288
				1.00758
				1.05282
				0.972286
				1.06092
				0.996321
				1.02467
				0.970548
				1.01418
				0.969982
				1.02354
				0.986695
				0.993661
				0.968356
				0.969238
				1.05357
				1.06992
				0.967801
				1.07424
				1.00645
				0.984456
				0.966268
				1.02063
				1.01521
				0.992423
				0.98736
				0.965771
				1.0125
				0.976149
				0.964335
				0.963837
				1.00544
				0.966441
				0.962544
				0.98973
				0.962143
				0.961194
				0.961011
				0.960885
				1.05864
				1.01234
				0.961095
				1.07065
				0.962879
				0.962136
				0.988475
				0.965263
				1.03322
				1.0045
				0.98565
				0.985901
				0.97748
				1.06641
				0.980022
				0.984883
				1.01412
				1.00301
				1.01154
				0.982489
				1.05862
				1.04654
				1.06639
				1.06717
				1.01915
				1.0662
				1.06927
				0.981495
				1.01481
				1.00155
				1.02443
				1.03465
				1.03034
				1.0114
				0.98499
				0.979283
				1.01963
				1.04772
				0.978524
				1.04183
				0.986941
				0.976479
				1.04254
				0.974092
				1.02219
				0.975717
				1.01082
				0.998424
				0.999432
				0.973822
				1.01236
				0.973223
				0.995917
				0.985295
				1.00998
				0.971452
				0.970863
				1.01241
				1.03396
				0.969197
				0.994295
				1.03048
				1.02073
				0.968705
				1.054
				0.967141
				1.07198
				0.966639
				1.00925
				0.991648
				1.07207
				0.965187
				0.96471
				0.966831
				1.01787
				0.963452
				0.962945
				0.990633
				0.962033
				0.9617
				1.05495
				1.00798
				1.01971
				0.986587
				0.961351
				1.01224
				0.971485
				0.963278
				0.961512
				0.962581
				0.965596
				0.985792
				1.06747
				0.98417
				0.988008
				1.06904
				1.06029
				1.05975
				0.986621
				1.00652
				1.01204
				0.969637
				0.984169
				1.06427
				1.06353
				1.00473
				1.0727
				1.01694
				0.983322
				0.975014
				0.981026
				1.01099
				1.0038
				0.986239
				1.01679
				0.979979
				1.04941
				1.02701
				0.977875
				1.00134
				1.01061
				1.07125
				1.06817
				1.03702
				1.0316
				0.977228
				1.06824
				1.02041
				0.975264
				0.999807
				1.04147
				1.05077
				0.974468
				1.02734
				1.01939
				1.01861
				1.0104
				0.982201
				0.972652
				1.04207
				0.99716
				0.986045
				0.972127
				0.973297
				0.970411
				0.995873
				0.969797
				1.00923
				1.01722
				0.96819
				0.983378
				0.967738
				0.993026
				0.97919
				0.985125
				0.966223
				0.965702
				1.03723
				0.983236
				0.979479
				0.969051
				1.02931
				0.964319
				1.00756
				0.991662
				0.963867
				0.962732
				0.964978
				0.96228
				1.06275
				0.961637
				0.961608
				1.06359
				0.96191
				1.01712
				1.01502
				0.988983
				1.02788
				0.967637
				0.964123
				0.962208
				1.05549
				1.00621
				0.987849
				1.01449
				0.985321
				1.05664
				1.00545
				0.985282
				0.984229
				0.985756
				1.05916
				1.05828
				1.05905
				1.06814
				1.0597
				1.00331
				0.981917
				0.971365
				1.01655
				1.06362
				0.981079
				0.986539
				1.05931
				1.00146
				0.97894
				1.06233
				1.05836
				0.978105
				1.01578
				1.0172
				0.998968
				0.976129
				1.02421
				0.975519
				1.05647
				1.03596
				1.04988
				0.97366
				1.039
				0.998129
				1.0161
				0.973015
				1.01204
				1.02538
				0.983725
				0.971273
				1.04456
				1.02912
				0.970804
				0.99537
				0.969136
				1.02596
				1.0105
				0.980495
				1.05142
				0.96864
				1.04618
				0.986278
				0.993402
				0.967091
				0.966657
				0.965273
				1.0587
				0.964723
				0.963681
				0.9907
				0.964788
				0.963111
				1.01306
				0.962453
				0.978059
				0.962111
				1.03594
				0.962217
				0.96231
				0.964323
				0.967346
				0.96892
				0.990011
				1.03593
				1.02543
				1.01147
				0.987395
				0.984046
				0.985714
				1.06311
				1.05395
				1.00584
				0.983345
				1.06252
				1.01435
				0.974078
				0.982888
				1.00359
				1.05479
				0.971534
				0.984818
				0.980657
				1.01329
				0.979298
				1.00666
				0.986077
				0.98619
				0.982135
				0.977291
				1.06233
				1.04639
				1.04969
				0.977048
				1.00411
				0.981744
				1.05195
				1.02423
				1.06024
				1.05883
				1.05339
				0.975131
				1.05993
				1.05614
				0.986183
				0.974008
				0.997931
				0.972252
				1.02312
				0.972164
				0.995081
				0.975655
				1.03867
				0.970448
				1.05606
				1.04965
				1.04495
				0.969503
				0.998229
				0.967904
				0.967909
				1.03388
				1.0275
				1.00941
				1.02482
				0.966384
				0.98185
				0.965503
				0.995287
				1.03512
				0.96423
				0.966708
				0.964085
				1.05017
				1.0465
				0.96312
				1.03754
				0.962291
				0.963363
				0.961901
				1.00746
				0.989676
				0.961848
				0.963452
				0.965709
				0.985263
				0.98709
				1.03753
				0.972759
				0.989806
				0.969573
				0.971027
				0.987186
				1.04363
				0.982629
				0.9846
				1.02097
				1.04016
				1.04626
				0.980444
				0.981425
				1.05517
				0.982716
				1.01929
				0.978737
				0.980528
				0.999136
				0.976862
				1.03498
				1.05586
				0.974981
				1.00195
				0.984232
				1.03216
				0.976972
				0.986717
				0.975073
				0.972008
				1.04737
				0.98525
				1.04033
				1.04372
				0.970306
				0.977929
				1.02504
				1.04548
				1.04768
				0.972102
				1.04899
				0.970333
				0.993313
				1.03335
				0.967668
				1.0514
				0.966276
				0.986646
				0.967802
				1.02347
				0.990566
				0.966401
				1.01377
				0.965668
				0.963859
				1.04369
				0.963265
				1.02915
				0.963998
				0.962807
				0.963465
				0.961772
				0.964695
				0.962527
				1.04829
				1.011
				1.03307
				1.03217
				1.03613
				1.03685
				0.985572
				0.981701
				1.04818
				0.986071
				0.983225
				0.96958
				0.966037
				1.04393
				1.03452
				0.978687
				1.0139
				1.00438
				1.04562
				0.979197
				0.976754
				1.01823
				0.97721
				0.974772
				1.00128
				0.984316
				1.03285
				0.986689
				1.04302
				1.01603
				0.973952
				1.04578
				0.97221
				1.02998
				1.04167
				0.984994
				1.02791
				0.981505
				0.969412
				0.995251
				0.967808
				0.9864
				1.02674
				0.965404
				0.99245
				0.986106
				1.01435
				0.964137
				0.963881
				1.04212
				0.962128
				0.962646
				0.96199
				1.02522
				1.0463
				0.962808
				1.02585
				0.982789
				1.04527
				1.00952
				1.02373
				1.03106
				0.967409
				0.986819
				1.02499
				0.987547
				1.04068
				1.00672
				1.04185
				0.9777
				1.03206
				0.985222
				0.966434
				1.04057
				1.03078
				1.0393
				1.0383
				0.981282
				1.00926
				0.970879
				0.985308
				0.979357
				0.987264
				1.01009
				1.00623
				1.0404
				0.999882
				1.01876
				0.970321
				1.01145
				0.976152
				0.996905
				0.974482
				1.01638
				0.985461
				1.00814
				0.971883
				1.00747
				1.0375
				1.04263
				0.970243
				0.968079
				0.98187
				0.967029
				0.96344
				0.9912
				0.964489
				0.985393
				1.04001
				0.962313
				0.977182
				0.987182
				0.98869
				1.02391
				1.00986
				1.0421
				0.986113
				1.02169
				1.02256
				0.96398
				0.964815
				1.00896
				0.964088
				1.02043
				0.984132
				1.00708
				1.0201
				1.00939
				1.00658
				0.982104
				1.02099
				0.986258
				1.02964
				1.04424
				1.00528
				1.03544
				1.03874
				1.02845
				0.978442
				1.03418
				0.976793
				0.964375
				1.04163
				1.00125
				0.987103
				0.977136
				0.982937
				0.969983
				0.976841
				1.00595
				0.973709
				0.998686
				1.00193
				1.01456
				0.972313
				1.00261
				1.00746
				0.969571
				1.01186
				0.968204
				0.971821
				0.982332
				1.00543
				1.00497
				0.966081
				1.02012
				0.965694
				0.99402
				0.986296
				0.986686
				0.962087
				1.0199
				0.991958
				0.988466
				0.987407
				1.01807
				1.0195
				1.02611
				0.96359
				1.01778
				0.988463
				1.00554
				1.01778
				0.986814
				0.962263
				1.00171
				0.983493
				0.987323
				1.00299
				1.01793
				1.02585
				1.00443
				1.00335
				1.01546
				0.984236
				1.00615
				1.02519
				1.0063
				1.00098
				0.98286
				1.02723
				1.02303
				0.978397
				0.968718
				0.981088
				1.02699
				0.997497
				0.979186
				1.00121
				1.01092
				0.987792
				0.995266
				0.978317
				0.974806
				0.972145
				1.00129
				1.00082
				0.975654
				1.00904
				1.00086
				0.971932
				1.00092
				1.00087
				0.970082
				0.974634
				0.99128
				1.01613
				0.989585
				0.97116
				0.989609
				0.989028
				1.01966
				0.990198
				1.01533
				0.978928
				0.990417
				0.986334
				1.00438
				1.01356
				0.972462
				0.986481
				0.985077
				1.01299
				1.00274
				1.01107
				0.988904
				0.982622
				1.01576
				1.00435
				1.0141
				1.00089
				1.0008
				0.981403
				1.00113
				1.01742
				1.00356
				1.01343
				1.00232
				0.99946
				0.979764
				1.00241
				0.977984
				1.01693
				0.998136
				1.00043
				0.990953
				0.977485
				1.00009
				0.976266
				1.00745
				0.971218
				0.990933
				0.974486
				0.974692
				0.977618
				1.00376
				1.00621
				0.988632
				0.988493
				1.00546
				1.00049
				1.00063
				0.996006
				1.00047
				0.974202
				1.0001
				0.994989
				0.978717
				1.00353
				0.98265
				0.980096
				0.993835
				1.00688
				0.992805
				0.993057
				1.00184
				0.993238
				0.990948
				0.993187
				1.00595
				1.0005
				0.992403
				0.97486
				1.00452
				0.991318
				0.991286
				1.00717
				0.992218
				1.00008
				1.00947
				1.00004
				1.00398
				0.988659
				0.990602
				1.0024
				0.982519
				1.00038
				1.00028
				0.990199
				0.998037
				1.00204
				1.0086
				1.00005
				0.989056
				0.986505
				0.997012
				1.00043
				1.0004
				1.00711
				1.00289
				1.00225
				0.98765
				1.0032
				0.986917
				0.994052
				0.983495
				1.00005
				1.00197
				1.00225
				1.00007
				0.992848
				0.979643
				0.995602
				1.00006
				1.00002
				0.99487
				1.00004
				1.00231
				0.994006
				1.00088
				0.98334
				1.00465
				0.993307
				1.00037
				0.995343
				0.993073
				1.00383
				0.993205
				0.996333
				0.991545
				0.993472
				0.993127
				0.987799
				1.00375
				0.984438
				0.99227
				1.00033
				1.00218
				0.999559
				0.991721
				0.990056
				1.00002
				0.994929
				1
				0.990892
				0.987808
				0.999168
				1.00196
				1.00007
				1.00003
				1.00214
				1.00005
				1.00029
				1.00191
				1.00069
				1.00175
				1.00002
				1.00012
				0.996321
				1.00012
				0.998899
				1.0012
				1.00082
				0.998691
				1.00002
				0.990282
				0.991362
				0.996454
				1.00039
				1.00003
				0.997442
				1.00073
				0.998388
				0.994975
				1.00038
				0.998105
				1
				1
				1.00099
				1.00031
				0.993266
				0.998338
				0.995935
				0.991052
				0.99785
				0.999929
				1.00085
				0.997939
				0.995838
				0.998061
				0.997784
				0.99793
				1
				0.997506
				0.997442
				0.994444
				0.991854
				1.00103
				0.999444
				0.999254
				1.00015
				1.00027
				1
				1.00092
				1.0004
				1
				0.998159
				1.00002
				1.00039
				1
				1
				1.00001
				1.00026
				0.997749
				1.00014
				1.00029
				0.99908
				1.00027
				0.999999
				0.998915
				1.00001
				1.00001
				0.997391
				1.00022
				0.993244
				1
				0.997903
				0.998936
				0.99611
				0.998754
				0.998646
				0.998969
				1.00007
				1.0005
				0.998761
				0.999982
				0.99866
				1
				1
				0.998537
				1.00042
				0.998687
				0.996681
				1
				0.998542
				0.998114
				0.996625
				0.999952
				0.998489
				0.999267
				0.998976
				1.00011
				0.997543
				0.999881
				1.00006
				1.00003
				0.998776
				1.00002
				1.00001
				1.00012
				1.0001
				1.00014
				0.999836
				1
				1
				1
				1.00001
				1
				0.99981
				1.00008
				0.999515
				1.00002
				1
				0.999096
				1
				0.99977
				1
				0.999732
				0.998348
				1
				0.999414
				1
				0.999793
				1.00005
				0.999779
				1
				0.998868
				0.999272
				0.999717
				0.999659
				0.999366
				0.999579
				0.999949
				0.999535
				1.00004
				0.999768
				0.999441
				1
				1
				0.999934
				0.999562
				1.00001
				1.00004
				0.999689
				0.999723
				1.00001
				0.999286
				1.00001
				0.999647
				1.00002
				1.00004
				1.00002
				1.00001
				1
				1
				1
				1.00003
				1.00001
				0.999907
				1
				0.999909
				0.999401
				1
				0.999762
				1
				0.999762
				0.999779
				1
				0.99914
				0.9999
				1
				0.99977
				1
				0.999554
				0.999878
				0.999759
				0.999998
				0.999465
				0.999996
				1
				1
				1
				0.99994
				1
				0.999856
				0.999822
				1
				1
				0.999665
				1
				1
				0.999864
				1
				0.999898
				1
				1
				0.999924
				1
				1
				0.999882
				0.999992
				0.999896
				1
				0.999993
				1
				1
				0.999969
				1
				0.999992
				1
				0.999988
				0.999862
				0.999974
				0.999875
				0.999956
				1
				1
				0.999939
				0.999917
				1
				1
				0.999961
				1
				0.999997
				0.999912
				1
				0.999997
				1
				0.999954
				1
				1
				1
				1
				1
				0.999957
				0.999949
				1
				1
				0.999991
				0.99996
				0.999979
				1
				0.99998
				1
				0.999979
				1
				1
				0.999995
				1
				0.999995
				0.999971
				1
				0.999991
				1
				0.999995
				1
				1
				1
				0.999985
				0.99993
				0.999976
				0.999982
				0.999994
				1
				0.99999
				1
				1
				0.999979
				1
				1
				0.999985
				1
				1
				1
				0.999992
				1
				1
				1
				0.999979
				1
				1
				1
				1
				1
				0.999997
				1
				1
				1
				1
				1
				0.999996
				1
				0.999995
				1
				1
				0.999995
				1
				0.999993
				1
				1
				1
				0.999992
				0.999999
				1
				1
				1
				1
				1
				1
				0.999998
				0.999998
				1
				1
				1
				1
				1
				0.999996
				1
				0.999999
				1
				1
				1
				1
				1
				0.999998
				1
				0.999998
				1
				1
				1
				1
				1
				1
				1
				1
				1
				1
				0.999999
				0.999999
				1
				1
				1
				0.999999
				1
				1
				1
				1
				1
				1
				0.999998
				1
				1
				1
				1
				0.999999
				1
				1
				1
				1
				1
				1
				0.999999
				1
				1
				1
				0.999999
				1
				1
				1
				1
				1
				1
				1
				1
				1
				1
				1
				1
				1
				1
				1
				1
				1
				1
				1
				1
				1
				1
				1
				1
				1
				1
				1
				1
				1
				1
				1
				1
				1
				1
				1
				1
				1
				1
				1
				1
				1
				1
				1
				1
				1
				1
				1
				1
				1
				1
				1
				1
				1
				1
				1
				1
				1
				1
				1
				1
				1
				1
				1
				1
				1
				1
				1
				1
				1
				1
				1
				1
				1
				1
				1
				1
				1
				1
				1
				1
				1
				1
				1
				1
				1
				1
				1
				1
				1
				1
				1
				1
				1
				1
				1
				1
				1
				1
				1
				1
				1
				1
				1
				1
				1
				1
				1
				1
				1
				1
				1
				1
				1
				1
				1
				1
				1
				1
				1
				1
				1
				1
				1
				1
				1
				1
				1
				1
				1
				1
				1
				1
				1
				1
				1
				1
				1
				1
				1
				1
				1
				1
				1
				1
				1
				1
				1
				1
				1
				1
				1
				1
				1
				1
				1
				1
				1
				1
				1
				1
				1
				1
				1
				1
				1
				1
				1
				1
				1
				1
				1
				1
				1
				1
				1
				1
				1
				1
				1
				1
				1
				1
				1
				1
				1
				1
				1
				1
				1
				1
				1
				1
				1
				1
				1
				1
				1
				1
				1
				1
				1
				1
				1
				1
				1
				1
				1
				1
				1
				1
				1
				1
				1
				1
				1
				1
				1
				1
				1
				1
				1
				1
				1
				1
				1
				1
				1
				1
				1
				1
				1
				1
				1
				1
				1
				1
				1
				1
				1
				1
				1
				1
				1
				1
				1
				1
				1
				1
				1
				1
				1
				1
				1
				1
				1
				1
				1
				1
				1
				1
				1
				1
				1
				1
				1
				1
				1
				1
				1
				1
				1
				1
				1
				1
				1
				1
				1
				1
				1
				1
				1
				1
				1
				1
				1
				1
				1
				1
				1
				1
				1
				1
				1
				1
				1
				1
				1
				1
				1
				1
				1
				1
				1
				1
				1
				1
				1
				1
				1
				1
				1
				1
				1
				1
				1
				1
				1
				1
				1
				1
				1
				1
				1
				1
				1
				1
				1
				1
				1
				1
				1
				1
				1
				1
				1
				1
				1
				1
				1
				1
				1
				1
				1
				1
				1
				1
				1
				1
				1
				1
				1
				1
				1
				1
				1
				1
				1
				1
				1
				1
				1
				1
				1
				1
				1
				1
				1
				1
				1
				1
				1
				1
				1
				1
				1
				1
				1
				1
				1
				1
				1
				1
				1
				1
				1
				1
				1
				1
				1
				1
				1
				1
				1
				1
				1
				1
				1
				1
				1
				1
				1
				1
				1
				1
				1
				1
				1
				1
				1
				1
				1
				1
				1
				1
				1
				1
				1
				1
				1
				1
				1
				1
				1
				1
				1
				1
				1
				1
				1
				1
				1
				1
				1
				1
				1
				1
				1
				1
				1
				1
				1
				1
				1
				1
				1
				1
				1
				1
				1
				1
				1
				1
				1
				1
				1
				1
				1
				1
				1
				1
				1
				1
				1
				1
				1
				1
				1
				1
				1
				1
				1
				1
				1
				1
				1
				1
				1
				1
				1
				1
				1
				1
				1
				1
				1
				1
				1
				1
				1
				1
				1
				1
				1
				1
				1
				1
				1
				1
				1
				1
				1
				1
				1
				1
				1
				1
				1
				1
				1
				1
				1
				1
				1
				1
				1
				1
				1
				1
				1
				1
				1
				1
				1
				1
				1
				1
				1
				1
				1
				1
				1
				1
				1
				1
				1
				1
				1
				1
				1
				1
				1
				1
				1
				1
				1
				1
				1
				1
				1
				1
				1
				1
				1
				1
				1
				1
				1
				1
				1
				1
				1
				1
				1
				1
				1
				1
				1
				1
				1
				1
				1
				1
				1
				1
				1
				1
				1
				1
				1
				1
				1
				1
				1
				1
				1
				1
				1
				1
				1
				1
				1
				1
				1
				1
				1
				1
				1
				1
				1
				1
				1
				1
				1
				1
				1
				1
				1
				1
				1
				1
				1
				1
				1
				1
				1
				1
				1
				1
				1
				1
				1
				1
				1
				1
				1
				1
				1
				1
				1
				1
				1
				1
				1
				1
				1
				1
				1
				1
				1
				1
				1
				1
				1
				1
				1
				1
				1
				1
				1
				1
				1
				1
				1
				1
				1
				1
				1
				1
				1
				1
				1
				1
				1
				1
				1
				1
				1
				1
				1
				1
				1
				1
				1
				1
				1
				1
				1
				1
				1
				1
				1
				1
				1
				1
				1
				1
				1
				1
				1
				1
				1
				1
				1
				1
				1
				1
				1
				1
				1
				1
				1
				1
				1
				1
				1
				1
				1
				1
				1
				1
				1
				1
				1
				1
				1
				1
				1
				1
				1
				1
				1
				1
				1
				1
				1
				1
				1
				1
				1
				1
				1
				1
				1
				1
				1
				1
				1
				1
				1
				1
				1
				1
				1
				1
				1
				1
				1
				1
				1
				1
				1
				1
				1
				1
				1
				1
				1
				1
				1
				1
				1
				1
				1
				1
				1
				1
				1
				1
				1
				1
				1
				1
				1
				1
				1
				1
				1
				1
				1
				1
				1
				1
				1
				1
				1
				1
				1
				1
				1
				1
				1
				1
				1
				1
				1
				1
				1
				1
				1
				1
				1
				1
				1
				1
				1
				1
				1
				1
				1
				1
				1
				1
				1
				1
				1
				1
				1
				1
				1
				1
				1
				1
				1
				1
				1
				1
				1
				1
				1
				1
				1
				1
				1
				1
				1
				1
				1
				1
				1
				1
				1
				1
				1
				1
				1
				1
				1
				1
				1
				1
				1
				1
				1
				1
				1
				1
				1
				1
				1
				1
				1
				1
				1
				1
				1
				1
				1
				1
				1
				1
				1
				1
				1
				1
				1
				1
				1
				1
				1
				1
				1
				1
				1
				1
				1
				1
				1
				1
				1
				1
				1
				1
				1
				1
				1
				1
				1
				1
				1
				1
				1
				1
				1
				1
				1
				1
				1
				1
				1
				1
				1
				1
				1
				1
				1
				1
				1
				1
				1
				1
				1
				1
				1
				1
				1
				1
				1
				1
				1
				1
				1
				1
				1
				1
				1
				1
				1
				1
				1
				1
				1
				1
				1
				1
				1
				1
				1
				1
				1
				1
				1
				1
				1
				1
				1
				1
				1
				1
				1
				1
				1
				1
				1
				1
				1
				1
				1
				1
				1
				1
				1
				1
				1
				1
				1
				1
				1
				1
				1
				1
				1
				1
				1
				1
				1
				1
				1
				1
				1
				1
				1
				1
				1
				1
				1
				1
				1
				1
				1
				1
				1
				1
				1
				1
				1
				1
				1
				1
				1
				1
				1
				1
				1
				1
				1
				1
				1
				1
				1
				1
				1
				1
				1
				1
				1
				1
				1
				1
				1
				1
				1
				1
				1
				1
				1
				1
				1
				1
				1
				1
				1
				1
				1
				1
				1
				1
				1
				1
				1
				1
				1
				1
				1
				1
				1
				1
				1
				1
				1
				1
				1
				1
				1
				1
				1
				1
				1
				1
				1
				1
				1
				1
				1
				1
				1
				1
				1
				1
				1
				1
				1
				1
				1
				1
				1
				1
				1
				1
				1
				1
				1
				1
				1
				1
				1
				1
				1
				1
				1
				1
				1
				1
				1
				1
				1
				1
				1
				1
				1
				1
				1
				1
				1
				1
				1
				1
				1
				1
				1
				1
				1
				1
				1
				1
				1
				1
				1
				1
				1
				1
				1
				1
				1
				1
				1
				1
				1
				1
				1
				1
				1
				1
				1
				1
				1
				1
				1
				1
				1
				1
				1
				1
				1
				1
				1
				1
				1
				1
				1
				1
				1
				1
				1
				1
				1
				1
				1
				1
				1
				1
				1
				1
				1
				1
				1
				1
				1
				1
				1
				1
				1
				1
				1
				1
				1
				1
				1
				1
				1
				1
				1
				1
				1
				1
				1
				1
				1
				1
				1
				1
				1
				1
				1
				1
				1
				1
				1
				1
				1
				1
				1
				1
				1
				1
				1
				1
				1
				1
				1
				1
				1
				1
				1
				1
				1
				1
				1
				1
				1
				1
				1
			</DataArray>
			<DataArray type="Float64" Name="mach-number" Format="ascii">
				0.0870069
				0.100587
				0.0831367
				0.221916
				0.176065
				0.182006
				0.129088
				0.21096
				0.241
				0.298915
				0.281628
				0.276382
				0.162214
				0.190065
				0.171338
				0.296117
				0.187425
				0.240867
				0.282224
				0.270429
				0.327751
				0.321021
				0.213057
				0.247343
				0.191147
				0.338197
				0.202687
				0.319944
				0.316491
				0.263704
				0.228697
				0.330767
				0.305475
				0.302963
				0.336339
				0.360799
				0.347377
				0.354258
				0.213863
				0.339779
				0.245228
				0.21305
				0.35365
				0.240719
				0.346859
				0.349382
				0.220361
				0.278032
				0.375298
				0.364921
				0.288706
				0.263809
				0.370847
				0.361068
				0.294909
				0.330113
				0.36316
				0.369454
				0.32882
				0.228816
				0.367178
				0.369744
				0.386134
				0.378183
				0.246013
				0.280622
				0.248506
				0.381843
				0.382783
				0.38836
				0.231779
				0.400254
				0.392056
				0.315971
				0.394465
				0.256997
				0.353397
				0.391182
				0.354378
				0.380779
				0.344
				0.375873
				0.315326
				0.383356
				0.378307
				0.242692
				0.344293
				0.398157
				0.25025
				0.404982
				0.395597
				0.276306
				0.398325
				0.249456
				0.271573
				0.305568
				0.390054
				0.403593
				0.392631
				0.284849
				0.253421
				0.363547
				0.309169
				0.25372
				0.364613
				0.408859
				0.40161
				0.385763
				0.331021
				0.370073
				0.388474
				0.403458
				0.371573
				0.334588
				0.258166
				0.330639
				0.407864
				0.397008
				0.412092
				0.399026
				0.29928
				0.297567
				0.406361
				0.273423
				0.273178
				0.407645
				0.321357
				0.411463
				0.393646
				0.396068
				0.278242
				0.354352
				0.323797
				0.414814
				0.264796
				0.260134
				0.355138
				0.402128
				0.382162
				0.2663
				0.403664
				0.377602
				0.384078
				0.410195
				0.344856
				0.348788
				0.378834
				0.414472
				0.411102
				0.345833
				0.275132
				0.417117
				0.295681
				0.399608
				0.330093
				0.401415
				0.30408
				0.413429
				0.416865
				0.40602
				0.311317
				0.407405
				0.27389
				0.413997
				0.291513
				0.419058
				0.318919
				0.391014
				0.39295
				0.2965
				0.36341
				0.418735
				0.357681
				0.313571
				0.327066
				0.316468
				0.272062
				0.363677
				0.416079
				0.404023
				0.386575
				0.409411
				0.420608
				0.405504
				0.370037
				0.388391
				0.276554
				0.416441
				0.410491
				0.337359
				0.370689
				0.273102
				0.279134
				0.4201
				0.337794
				0.332064
				0.418261
				0.421637
				0.351325
				0.337083
				0.397315
				0.344321
				0.398652
				0.311476
				0.418534
				0.421086
				0.412278
				0.407673
				0.327558
				0.346752
				0.413067
				0.408933
				0.421806
				0.291972
				0.419917
				0.279314
				0.290735
				0.294381
				0.421539
				0.32951
				0.393828
				0.39568
				0.420361
				0.354901
				0.333155
				0.365685
				0.421139
				0.414699
				0.401073
				0.354498
				0.334929
				0.421417
				0.282649
				0.381125
				0.402774
				0.415278
				0.410861
				0.421226
				0.376097
				0.38218
				0.279821
				0.411821
				0.419432
				0.376245