<VTKFile type="UnstructuredGrid" version="0.1" byte_order="LittleEndian">
<UnstructuredGrid>
	<Piece NumberOfPoints="1485" NumberOfCells="2857">
		<CellData Scalars="density" Vectors="velocity">
			<DataArray type="Float64" Name="density" Format="ascii">
				1.40235
				1.37886
				1.35626
				1.27666
				1.3186
				1.3378
				1.35504
				1.22076
				1.20389
				1.14332
				1.12913
				1.23201
				1.31601
				1.32423
				1.33905
				1.04887
				1.33681
				1.24904
				1.16355
				1.23689
				1.12926
				1.04219
				1.29975
				1.2898
				1.30779
				1.05438
				1.30966
				1.14455
				1.06941
				1.19244
				1.24412
				0.966239
				1.141
				1.21377
				1.07507
				0.992275
				0.975502
				1.05475
				1.30595
				1.13757
				1.27393
				1.27311
				0.910222
				1.29148
				0.999369
				1.07221
				1.29202
				1.18993
				0.951213
				0.92209
				1.16072
				1.23571
				0.998876
				1.0069
				1.21068
				1.08731
				1.07388
				0.870062
				1.14319
				1.27415
				0.942981
				1.01557
				0.920964
				0.883671
				1.26478
				1.2505
				1.25616
				0.842815
				0.958587
				0.856452
				1.26138
				0.87616
				0.927992
				1.16513
				0.896489
				1.22001
				1.02087
				0.823994
				1.08357
				0.901232
				1.0867
				0.954143
				1.19415
				0.973401
				1.02136
				1.26574
				1.13646
				0.809505
				1.26705
				0.856599
				0.837882
				1.2328
				0.902696
				1.23335
				1.24962
				1.1604
				0.871369
				0.794109
				0.941067
				1.21202
				1.23623
				1.02772
				1.1862
				1.24888
				1.08365
				0.839544
				0.821072
				0.912565
				1.0899
				0.96744
				0.980016
				0.881083
				1.03226
				1.13587
				1.23862
				1.06108
				0.774258
				0.850388
				0.825899
				0.914234
				1.21618
				1.17529
				0.801533
				1.22594
				1.22292
				0.86173
				1.14182
				0.762302
				0.883917
				0.947781
				1.19825
				1.03403
				1.1739
				0.812383
				1.2351
				1.22189
				1.08738
				0.831304
				0.924608
				1.22802
				0.89128
				0.975714
				0.990971
				0.785595
				1.09093
				1.04745
				1.0362
				0.742392
				0.846191
				1.1294
				1.23086
				0.799627
				1.19975
				0.86284
				1.07077
				0.920165
				1.16442
				0.768081
				0.731793
				0.810619
				1.14415
				0.870894
				1.20011
				0.831908
				1.21424
				0.791903
				1.16535
				0.894928
				0.9585
				1.18878
				1.03599
				0.716434
				1.03588
				1.09903
				1.14888
				1.12809
				1.20856
				1.08543
				0.750797
				0.837227
				0.934448
				0.792766
				0.779347
				0.896432
				0.983185
				0.997175
				1.21261
				0.817757
				0.85411
				1.09112
				1.04193
				1.20239
				1.20597
				0.704301
				1.12645
				1.10726
				0.735921
				0.758693
				1.05605
				1.10095
				0.871698
				1.06013
				0.929898
				1.18804
				0.807626
				0.692958
				0.774565
				0.822695
				1.1441
				1.07054
				0.83875
				0.878365
				0.749773
				1.19346
				0.721104
				1.20375
				1.19114
				1.17217
				0.681643
				1.15612
				0.907572
				0.965813
				0.797206
				1.03941
				1.08593
				1.02282
				0.739987
				0.757377
				0.845946
				1.08585
				1.09518
				0.672526
				1.20545
				0.941193
				0.905752
				0.823872
				0.797617
				0.708233
				0.988765
				1.00394
				1.18963
				0.861151
				0.735257
				1.04391
				0.779991
				1.1992
				0.663367
				1.08651
				1.04013
				1.19567
				1.0992
				0.742231
				1.04527
				0.695843
				0.727779
				1.11986
				1.17364
				0.877239
				0.812788
				0.655989
				0.935525
				1.09553
				0.764196
				1.13623
				0.782399
				0.829544
				0.722652
				0.886859
				0.843822
				0.649914
				1.05089
				1.1805
				0.684937
				0.727784
				1.07931
				0.718033
				0.753805
				0.912669
				0.801404
				1.18476
				0.644225
				1.16573
				1.17238
				1.15005
				0.973534
				1.06293
				0.67495
				0.715019
				1.04022
				1.01132
				0.761512
				0.639857
				0.858642
				1.18184
				1.08354
				0.714843
				0.745881
				0.80516
				0.713396
				0.831954
				0.914223
				0.946259
				0.635439
				1.17715
				0.9937
				1.00844
				1.03057
				0.868181
				0.783715
				1.08901
				0.666134
				0.713559
				1.09612
				1.04581
				1.02489
				0.632272
				1.07323
				0.738781
				1.18273
				0.714562
				0.702372
				1.08398
				0.629141
				1.07849
				0.746958
				0.658833
				1.1432
				0.717731
				0.892269
				1.16512
				0.628489
				0.767964
				1.17407
				1.11571
				0.731982
				0.819261
				0.943306
				0.756384
				0.78858
				0.627076
				1.07354
				0.652387
				0.835393
				1.07041
				1.17603
				0.920093
				0.625511
				0.691545
				0.850366
				1.03349
				0.950915
				0.896444
				0.726445
				0.623025
				1.11941
				0.954288
				0.731929
				0.757356
				0.620028
				0.646949
				0.991878
				0.962121
				0.616625
				1.17961
				0.96903
				1.04855
				0.612865
				1.16569
				0.97705
				0.722144
				0.60904
				0.801439
				0.98635
				0.605609
				0.681271
				0.978359
				1.01076
				0.64205
				0.769597
				1.13936
				1.15128
				0.997614
				1.16643
				0.749499
				0.719388
				1.04094
				0.863131
				0.756112
				0.637992
				0.717694
				0.837527
				0.813748
				1.08174
				0.920981
				0.672442
				0.952654
				0.901393
				0.718288
				1.1785
				1.07511
				1.00956
				1.01744
				1.17159
				0.634442
				0.788863
				0.997442
				0.873603
				0.742109
				1.07517
				0.718492
				1.04352
				1.07517
				0.632474
				1.05132
				0.66494
				0.753575
				0.720328
				0.706006
				0.630948
				0.735438
				1.16266
				1.14974
				0.724071
				0.823422
				0.771951
				1.08125
				0.629261
				1.13357
				0.658133
				0.950873
				0.848744
				0.793272
				0.626994
				0.84903
				1.07771
				0.729761
				0.945548
				1.01868
				1.11241
				1.15727
				0.624119
				1.16836
				0.693961
				1.0805
				0.952938
				0.902149
				0.859041
				0.652545
				1.07231
				0.620811
				0.740039
				1.03311
				0.960271
				0.617143
				0.763451
				1.00644
				0.966941
				0.725411
				0.613303
				0.974266
				0.60968
				0.982815
				1.11694
				0.805987
				0.61141
				1.159
				0.93496
				0.993154
				0.64721
				1.00521
				0.995464
				0.684353
				1.0649
				0.72251
				1.04483
				1.15807
				1.06455
				0.643046
				0.774382
				0.753161
				0.724566
				0.721272
				1.13514
				1.03981
				1.14543
				1.14817
				0.817342
				1.15203
				1.15752
				0.639098
				0.845192
				0.675489
				0.930358
				0.960622
				0.907955
				0.792582
				1.06666
				0.721233
				0.87865
				1.07812
				0.637244
				1.00066
				1.06103
				0.722936
				1.04456
				1.03448
				0.854945
				0.63503
				0.714075
				0.667531
				0.746467
				0.726451
				0.758387
				0.633063
				0.739419
				1.07526
				0.777167
				0.851475
				0.630464
				0.823805
				1.00145
				0.947345
				0.661057
				0.958758
				0.806346
				0.627457
				1.07838
				0.955469
				1.15713
				0.624062
				0.700796
				0.734036
				1.15688
				0.962422
				0.62032
				1.00903
				0.863118
				0.968975
				0.616483
				0.654739
				0.976212
				0.612952
				1.10684
				0.76736
				0.907876
				1.06417
				0.984795
				0.743155
				1.01998
				0.93871
				0.614283
				0.994961
				1.00678
				1.05749
				1.1521
				1.08051
				0.730004
				1.1503
				1.13316
				1.11396
				0.649952
				0.69216
				0.81122
				1.02019
				0.72757
				1.14101
				1.12988
				0.757932
				1.15747
				0.7779
				0.645205
				1.04563
				0.726331
				0.728835
				0.682198
				1.06197
				0.847805
				0.642867
				1.03882
				0.932296
				0.727122
				0.750275
				0.796878
				1.15461
				1.14716
				0.966428
				0.919694
				0.639515
				1.14251
				0.88668
				0.729258
				0.674847
				1.00326
				1.0749
				0.637129
				0.861642
				0.811186
				0.770569
				0.716642
				1.06111
				0.761085
				1.0432
				0.744013
				1.0597
				0.634306
				1.02793
				0.916719
				0.667308
				0.631373
				0.78344
				0.832307
				0.949074
				1.06873
				0.628093
				0.737836
				1.06196
				1.06347
				0.961622
				0.624429
				1.00648
				1.06329
				1.04633
				1.01389
				0.96543
				0.966774
				0.704436
				0.661358
				0.620692
				0.973415
				1.0021
				0.617164
				1.14181
				0.980837
				0.61356
				1.13894
				0.99075
				0.867945
				0.746505
				0.734352
				0.919778
				1.01422
				1.00172
				0.763213
				1.07449
				0.771319
				0.655669
				0.813615
				0.731158
				1.10249
				0.695519
				1.05751
				0.651193
				1.06487
				1.11974
				1.10234
				1.13747
				1.14474
				1.13861
				0.762326
				0.730229
				1.02823
				0.740276
				1.13422
				0.648354
				1.05147
				1.12638
				0.685047
				0.730335
				1.12255
				1.13619
				0.644935
				0.80626
				0.775398
				0.754547
				0.732633
				0.888618
				0.641593
				1.13024
				0.927563
				1.03447
				0.765096
				0.971358
				0.678127
				0.835738
				0.638711
				0.720433
				0.817529
				1.05275
				0.917906
				1.00184
				0.874652
				0.635078
				0.74837
				0.95248
				0.924182
				0.786153
				1.06271
				1.06912
				0.632055
				1.0408
				1.04814
				0.669595
				0.964433
				0.627878
				0.969047
				1.13641
				0.624556
				0.975813
				0.742753
				1.00577
				0.620758
				0.715217
				0.982873
				1.04601
				0.617634
				0.97193
				0.993649
				0.765146
				1.00304
				1.0151
				1.0175
				0.664459
				1.01039
				0.879584
				0.780357
				0.739586
				1.06318
				0.657897
				1.13963
				1.06866
				0.700141
				0.736471
				1.13449
				0.745218
				1.0308
				0.655627
				0.76507
				1.09452
				1.03072
				1.04585
				0.736287
				0.810975
				0.650364
				0.695221
				1.05425
				1.04991
				1.06771
				0.736883
				1.13751
				1.1271
				1.12784
				0.647096
				0.762267
				1.0547
				1.11987
				0.783266
				1.13348
				1.09547
				1.10971
				0.740588
				1.11366
				1.12133
				1.05253
				0.642701
				0.683157
				0.835042
				0.841685
				0.639536
				0.751074
				1.04081
				0.937327
				0.925763
				1.12637
				1.03308
				0.987513
				0.635691
				0.678815
				0.963107
				0.632305
				0.930484
				0.827125
				0.72075
				0.885417
				0.96763
				1.05863
				0.628294
				0.749868
				0.881052
				0.973067
				1.00927
				0.625326
				1.06551
				1.02632
				0.978635
				1.12125
				0.62138
				0.954032
				0.988226
				0.784821
				0.669527
				0.623633
				0.999674
				1.01011
				1.04811
				0.742365
				0.978252
				1.04151
				0.666165
				1.02149
				1.02515
				0.742641
				1.12279
				0.660983
				1.05432
				0.75397
				1.11776
				0.991483
				0.739123
				1.05239
				1.06373
				0.657657
				0.815617
				1.06028
				0.742023
				0.767281
				0.651543
				1.12036
				1.08913
				0.743294
				0.700528
				1.04645
				1.11703
				0.648747
				1.04092
				0.831748
				0.64312
				1.02869
				1.05448
				1.1235
				1.12471
				0.92833
				1.0506
				0.791513
				1.11454
				1.08638
				0.640807
				1.10295
				0.966786
				0.683828
				1.10679
				0.635404
				1.10369
				0.970349
				1.044
				0.633183
				0.852985
				0.756221
				0.975709
				0.729909
				1.01156
				0.628673
				0.949455
				0.981728
				1.11135
				0.626455
				0.951692
				0.989382
				0.628662
				1.01238
				1.00081
				1.03103
				0.790303
				0.832029
				0.891132
				0.940002
				0.892621
				0.672844
				1.04247
				1.06182
				1.0383
				0.74994
				1.027
				1.01919
				0.988867
				1.12228
				1.05522
				1.11026
				0.709755
				0.996704
				0.661241
				1.04107
				0.762875
				0.751143
				1.04125
				0.77303
				1.05461
				1.11404
				1.0426
				1.05829
				0.824596
				0.650554
				1.03237
				0.863674
				1.11872
				1.08201
				1.03703
				1.11492
				1.05869
				0.641773
				0.692839
				0.970161
				1.04031
				0.7974
				0.634875
				0.761782
				1.04533
				1.1057
				0.977375
				0.990718
				0.958808
				0.628744
				0.989965
				0.821451
				0.856577
				1.08082
				1.00196
				1.10175
				1.05323
				1.09755
				0.737809
				1.10238
				1.09195
				1.02034
				1.04388
				1.10795
				0.68128
				1.02758
				0.799499
				0.995051
				1.04351
				0.840694
				0.755097
				1.02102
				0.901749
				0.901488
				0.947157
				1.0573
				0.668963
				1.10752
				1.03415
				1.03887
				0.756572
				1.03613
				1.10695
				1.10286
				1.00008
				0.716614
				0.769573
				1.04045
				1.09869
				0.657477
				0.783949
				0.875322
				0.827684
				1.04548
				1.10263
				0.647747
				1.10091
				1.03233
				1.05279
				0.973989
				0.640145
				1.04372
				0.981091
				0.997406
				0.701369
				0.633438
				1.03831
				1.07649
				0.845819
				1.05517
				1.03384
				0.77407
				0.807177
				0.745138
				0.971116
				1.045
				0.865685
				1.07227
				1.02501
				0.993438
				1.10254
				1.00401
				1.08755
				0.685619
				0.803249
				1.09723
				1.08927
				1.09523
				0.767377
				1.08734
				1.03713
				0.846955
				1.01732
				1.10256
				0.911701
				1.003
				0.905894
				0.671125
				0.955038
				0.793449
				1.01911
				1.04787
				0.724478
				1.03115
				1.04966
				1.03522
				1.03473
				1.04526
				1.10414
				0.658654
				0.788003
				1.09276
				0.778341
				0.930279
				1.09297
				1.09536
				0.649571
				0.837251
				0.976823
				1.03863
				1.05151
				1.10192
				1.09888
				0.642297
				1.04683
				0.985182
				0.709709
				1.04515
				1.03276
				0.776467
				1.01318
				0.778075
				1.03392
				1.03117
				1.06941
				0.813019
				0.974826
				1.03018
				1.04469
				0.693614
				0.753235
				0.869184
				0.771245
				0.998433
				1.0883
				1.04333
				1.03819
				0.814832
				1.06727
				1.00748
				1.08581
				1.09185
				1.08263
				0.678486
				1.08593
				0.858741
				1.07677
				1.08987
				0.799475
				0.923234
				0.913334
				1.03755
				1.01829
				0.66522
				0.960119
				0.73463
				0.931098
				1.08996
				0.785145
				1.03208
				0.801313
				0.655366
				0.978101
				1.0343
				1.08222
				1.09168
				0.647169
				0.840442
				1.08865
				0.795996
				1.09121
				1.08865
				1.0358
				0.986902
				0.714601
				1.03887
				0.7911
				0.999585
				1.02532
				1.03809
				0.993991
				1.03141
				0.822611
				1.04789
				1.03248
				1.03594
				0.760435
				1.06264
				1.03111
				0.696155
				0.786049
				0.878502
				0.817999
				1.03708
				1.03711
				0.680005
				1.00768
				1.05945
				0.864339
				1.08061
				1.08586
				0.869615
				1.07431
				0.934294
				1.07349
				0.917631
				1.08234
				0.742285
				0.66774
				1.07312
				0.9568
				0.965093
				0.804787
				1.09015
				1.02916
				0.658108
				1.07744
				0.980385
				0.794144
				1.01269
				1.02417
				0.665138
				0.965754
				1.03381
				1.03534
				0.997178
				1.04302
				1.0311
				0.853185
				1.08787
				1.07959
				0.722779
				1.08484
				0.990151
				1.07687
				0.794641
				1.03201
				1.05675
				1.0377
				1.04508
				0.704123
				0.828052
				1.03776
				0.791036
				0.772146
				1.02476
				1.02555
				1.02845
				0.88255
				0.831903
				0.687496
				1.02663
				1.03485
				0.873692
				0.674728
				1.00693
				1.03143
				1.07287
				0.876174
				1.07681
				0.936827
				0.956181
				1.03625
				1.05497
				1.01112
				1.07167
				1.07827
				0.664168
				0.747819
				1.06848
				0.924186
				1.07908
				0.66929
				0.977798
				0.819106
				1.06368
				1.07223
				0.970503
				0.80032
				1.00489
				0.961351
				0.981377
				0.990273
				1.02233
				1.0303
				1.07613
				1.03182
				0.856477
				1.07464
				1.02533
				1.03008
				0.725965
				1.06786
				1.07431
				0.804297
				1.07462
				1.04857
				0.706067
				0.777452
				1.02576
				0.837337
				0.828749
				0.833781
				1.03152
				1.02024
				0.893807
				0.691029
				1.02581
				0.931225
				1.02392
				1.03033
				1.02653
				1.01888
				1.03708
				0.678168
				1.04756
				0.879061
				0.753813
				0.668289
				0.974939
				1.07384
				1.03021
				1.06735
				0.811909
				1.00161
				0.821729
				0.943852
				1.06142
				1.07084
				0.928991
				1.0678
				1.06015
				0.974076
				1.00728
				0.813702
				1.07679
				1.06057
				1.03606
				1.06899
				0.733694
				0.871162
				0.985057
				0.807451
				1.07261
				1.00579
				1.03074
				1.01891
				1.02715
				1.06585
				1.0177
				1.01655
				0.712561
				1.02364
				1.04312
				0.8353
				1.0642
				1.06349
				0.840696
				0.783187
				1.02269
				0.698735
				1.01934
				1.03059
				0.931981
				0.847171
				0.897256
				0.68425
				1.00093
				1.01894
				1.03113
				0.674857
				1.06522
				0.976626
				0.809605
				1.0374
				1.02306
				0.886495
				0.757815
				0.832679
				1.04334
				0.947947
				1.05995
				0.936082
				0.984627
				1.06595
				1.02432
				1.05921
				0.814962
				1.06568
				1.06481
				1.0658
				1.01848
				1.02969
				1.05436
				0.873126
				0.736366
				0.986031
				1.06151
				0.816009
				1.05195
				1.05995
				1.00864
				1.03048
				1.02455
				1.05579
				1.01953
				0.717256
				1.02835
				0.882764
				1.02214
				1.01778
				0.781476
				0.855801
				0.703044
				0.84574
				0.944607
				1.06488
				1.06186
				1.01378
				0.908129
				0.689281
				1.0129
				1.05561
				0.690045
				0.988366
				1.03223
				0.769399
				0.938205
				1.01962
				1.02537
				0.890669
				1.01803
				0.843067
				0.988848
				1.01421
				1.02479
				1.02709
				1.03497
				0.939798
				0.951039
				0.819095
				0.736891
				1.0584
				1.06429
				1.0502
				1.04625
				1.05546
				0.815456
				0.879758
				1.0287
				0.983262
				1.0563
				1.02476
				1.05967
				0.728979
				1.04877
				0.884572
				1.02295
				1.05634
				1.01391
				1.05408
				0.706027
				0.854275
				0.945416
				1.0542
				1.02499
				1.01034
				0.700854
				0.987582
				1.01726
				1.016
				0.773849
				1.01116
				0.907783
				0.697332
				1.01231
				1.05201
				1.05473
				0.84872
				1.0138
				1.00026
				0.896665
				0.899758
				1.0149
				1.0157
				1.03064
				0.988608
				1.02499
				0.965105
				0.83173
				0.943162
				1.02872
				1.05378
				1.05324
				1.04923
				0.893993
				1.03905
				0.73534
				1.04814
				0.889982
				1.01943
				1.05023
				1.02386
				1.05409
				1.01558
				1.01936
				1.04145
				1.02029
				0.711157
				1.04561
				1.00021
				1.04878
				1.01749
				0.966262
				1.01475
				0.784439
				1.02524
				0.859037
				0.966548
				0.839178
				0.998716
				0.907462
				1.05373
				1.01005
				1.01763
				1.05084
				1.0453
				1.02531
				0.90841
				0.9013
				1.006
				1.02665
				1.00787
				1.03729
				1.01445
				1.01534
				0.947276
				0.98768
				1.02048
				0.745798
				1.01651
				1.04489
				0.900832
				1.05176
				1.04786
				1.02344
				1.04067
				0.723934
				1.04869
				0.969035
				1.01709
				1.00018
				1.01294
				1.01184
				1.04611
				1.03863
				1.01581
				1.0197
				1.04495
				1.04414
				1.00913
				1.04576
				0.794045
				1.02291
				0.982621
				0.883521
				1.04461
				1.01406
				0.844638
				1.01144
				1.04275
				1.02388
				0.919695
				1.01372
				1.00871
				0.905734
				1.02561
				0.917697
				1.02442
				1.00849
				1.04479
				1.00065
				1.03467
				1.0099
				0.953314
				0.999943
				0.75563
				1.04319
				0.935239
				1.0206
				1.04046
				0.986934
				1.04386
				0.76233
				1.03869
				0.981762
				1.04099
				1.02021
				1.01105
				1.00956
				1.0098
				1.00503
				1.04419
				1.01547
				1.03739
				0.798766
				1.0188
				1.03753
				0.890083
				1.01011
				1.03281
				0.998939
				1.0075
				1.01261
				1.03953
				1.0196
				1.04377
				1.02066
				0.854608
				1.04158
				0.91871
				0.915996
				0.761436
				0.961001
				1.00315
				0.937351
				1.02409
				0.986243
				1.03741
				1.01161
				1.03286
				1.00693
				0.953862
				1.04221
				1.01416
				1.00141
				1.01606
				1.03935
				0.770453
				0.967449
				1.01231
				1.01946
				1.03765
				1.00812
				1.03974
				1.03259
				1.03745
				1.00689
				1.0057
				1.00576
				0.808443
				1.01325
				1.01887
				1.03576
				1.03757
				1.01547
				0.917303
				1.00432
				1.03041
				1.0372
				0.98496
				1.00946
				1.03622
				1.02001
				1.03719
				1.0096
				0.855006
				1.03472
				1.02017
				0.778602
				0.920266
				0.964644
				0.918079
				1.02883
				0.959057
				0.998707
				1.00485
				1.00447
				0.953535
				1.03526
				1.0004
				1.00232
				1.01179
				1.03667
				1.03389
				0.809708
				1.0083
				1.01253
				1.01612
				0.969473
				1.03197
				1.03342
				1.03597
				1.01533
				1.03069
				0.808495
				0.921672
				0.986477
				1.00135
				1.03011
				1.00333
				1.01702
				1.03602
				1.01167
				1.00589
				0.964954
				1.03112
				1.02558
				0.777208
				1.00896
				0.862245
				1.03573
				1.03425
				1.0322
				0.986706
				1.00271
				0.932351
				0.920176
				1.01797
				0.997314
				1.02653
				1.0006
				0.963206
				0.970713
				1.00649
				1.03445
				0.998194
				1.03139
				0.816233
				1.02988
				1.00616
				1.01002
				0.963579
				1.03185
				1.00329
				1.0105
				1.01452
				1.01551
				1.01207
				1.03109
				1.03248
				1.03029
				0.819902
				0.999576
				1.02545
				0.946105
				1.01549
				1.0019
				1.02835
				0.983105
				1.00171
				1.03066
				1.01167
				0.988475
				0.86411
				1.02959
				1.02368
				1.02783
				1.00301
				0.938688
				1.00543
				0.968008
				1.03033
				0.824397
				0.922299
				1.00377
				1.00234
				0.999555
				1.02964
				1.02887
				1.01545
				1.00218
				1.02398
				1.02588
				1.0016
				0.955882
				1.02801
				0.969661
				1.00315
				1.01137
				0.821193
				0.949616
				1.02746
				1.02981
				1.00382
				1.01495
				1.01218
				1.0115
				1.02397
				1.02643
				1.01301
				0.98313
				1.02343
				0.998458
				0.999505
				1.02933
				1.00294
				1.00802
				0.991697
				0.870963
				1.00636
				1.02908
				0.951631
				1.01958
				0.970079
				1.00004
				1.0028
				0.994087
				0.927566
				0.970456
				1.02624
				1.00619
				0.848054
				1.0256
				1.02381
				1.02835
				1.01395
				1.00418
				1.00293
				0.999305
				1.02443
				1.02251
				0.950009
				1.01027
				0.968815
				1.02332
				1.02477
				1.00064
				1.02651
				1.01136
				1.00888
				1.00158
				1.01341
				1.01226
				1.01962
				0.993782
				1.02218
				0.996551
				0.87552
				1.00092
				0.85382
				1.02497
				0.955401
				0.990663
				1.02384
				0.989216
				1.00827
				1.00546
				1.00018
				1.01801
				0.999193
				0.998687
				1.0057
				0.9317
				0.975587
				0.974027
				1.02114
				1.02476
				1.00354
				1.02418
				0.997047
				0.970146
				1.02321
				0.999904
				1.00122
				1.02233
				1.01099
				1.01971
				1.00939
				1.02061
				1.0223
				0.938189
				1.02098
				1.02404
				1.00877
				0.999929
				1.00963
				1.01226
				1.00904
				1.01836
				0.992934
				1.01817
				0.889924
				1.00139
				0.967463
				1.02389
				0.997899
				1.00317
				1.0238
				0.976299
				1.00542
				0.981775
				0.994026
				1.00466
				0.997089
				0.937853
				0.97686
				0.998318
				1.01461
				0.998086
				0.998181
				1.02314
				1.02135
				1.021
				0.983909
				1.01982
				1.0086
				0.997763
				0.93042
				1.01039
				1.00013
				1.01826
				1.00936
				1.01828
				1.0184
				1.00887
				1.02149
				1.01904
				1.02044
				0.89326
				1.00934
				1.00649
				0.999333
				1.01495
				0.970267
				1.01711
				0.999955
				1.01983
				1.02019
				0.976545
				0.979284
				0.99214
				0.995843
				1.00199
				0.997898
				1.00567
				0.997957
				0.944246
				1.00561
				0.996878
				1.01324
				0.98104
				0.998628
				1.01986
				1.01818
				0.984337
				1.02021
				1.0162
				1.00689
				0.998874
				1.01629
				0.918606
				0.934683
				0.995958
				1.00881
				0.91784
				1.02025
				1.00707
				1.01789
				1.01603
				1.00798
				1.00675
				1.01718
				1.01604
				0.998414
				0.980508
				1.0068
				1.01388
				1.01391
				0.999816
				0.992033
				0.999421
				1.01941
				0.976196
				0.99599
				0.976783
				1.00456
				1.01885
				0.982898
				0.996311
				0.996666
				1.00362
				0.945925
				0.997731
				1.01675
				1.01064
				0.997267
				1.00629
				0.994171
				1.0174
				1.01522
				0.998597
				1.01429
				1.00791
				0.931684
				0.995286
				1.01648
				0.943114
				1.00726
				1.0068
				0.927451
				1.00565
				1.01737
				1.0148
				0.982147
				1.01417
				1.01469
				1.00483
				1.00241
				1.01123
				1.00361
				0.98644
				1.01304
				0.998894
				0.998647
				0.993346
				0.996003
				0.977806
				1.01635
				0.978875
				1.01537
				0.996175
				0.986951
				0.948702
				0.997152
				1.01425
				0.99517
				1.00426
				1.0095
				0.994052
				0.997532
				1.01649
				1.00593
				1.01241
				0.998104
				0.942722
				1.01582
				1.01263
				1.00681
				0.994271
				1.01429
				1.00413
				1.00509
				1.01307
				0.98989
				1.01319
				1.01244
				1.00349
				0.984033
				0.998588
				1.0051
				1.00074
				1.01035
				0.950276
				1.01057
				0.992697
				0.998629
				1.01576
				0.995209
				0.988594
				0.978211
				0.978926
				0.944231
				0.996281
				1.01486
				1.01314
				0.997453
				0.995787
				1.00283
				0.998964
				1.0076
				0.997054
				1.00599
				1.01422
				1.0062
				1.01164
				1.01116
				0.998261
				1.01295
				1.00522
				0.993978
				1.01396
				1.00306
				0.990736
				0.96392
				1.01204
				1.01134
				1.01094
				0.997963
				1.00146
				1.00368
				0.957047
				0.991458
				1.00376
				1.00987
				1.00836
				0.979085
				0.998193
				0.992234
				0.980066
				1.01328
				0.995386
				0.996464
				1.01186
				0.965374
				1.01116
				0.998109
				0.995402
				0.998545
				1.00668
				1.00325
				0.997352
				1.0047
				1.01345
				1.00952
				1.01223
				0.99803
				1.00549
				1.00988
				1.01153
				0.993432
				0.968782
				0.960093
				1.00397
				1.00202
				0.995477
				0.996675
				1.01073
				0.992402
				1.00074
				1.00332
				1.00973
				1.01015
				1.00802
				1.00389
				1.00764
				0.993435
				0.998401
				0.996912
				1.01276
				0.985236
				0.980612
				1.01024
				1.01177
				0.994449
				0.965407
				0.998835
				1.00453
				1.00202
				1.00071
				0.995971
				0.997284
				1.0053
				1.00504
				0.970652
				1.00887
				1.01015
				1.01162
				1.0089
				0.998385
				1.0112
				1.00397
				0.992935
				0.966923
				0.996124
				0.999885
				1.00116
				0.995919
				1.00981
				0.980678
				0.994024
				1.0088
				0.99615
				1.00848
				1.00283
				1.00331
				1.00744
				1.00618
				0.99813
				0.997308
				0.984487
				1.01075
				1.00985
				1.00887
				0.999264
				1.00208
				0.974567
				0.99527
				0.971579
				1.00055
				1.00369
				1.00454
				0.995709
				0.997463
				1.0047
				1.00941
				1.00733
				1.01099
				0.996116
				0.998193
				1.00775
				1.00927
				0.971082
				0.998352
				0.992203
				1.00308
				1.00898
				0.998692
				1.00047
				0.993404
				0.980479
				0.996906
				1.00311
				1.00611
				1.00762
				1.00295
				1.00784
				1.00925
				1.00558
				0.996963
				0.99834
				1.01037
				1.00831
				0.999786
				1.0095
				1.00135
				0.989191
				1.00361
				1.00445
				0.994732
				0.975771
				0.974422
				1.00163
				0.997337
				1.00361
				0.996178
				0.991932
				1.00696
				1.00683
				1.00956
				1.00909
				0.999489
				0.998151
				1.0031
				1.00814
				0.981326
				0.998889
				0.999551
				1.00843
				0.995232
				0.998854
				0.995991
				1.00296
				1.00687
				1.00218
				1.00661
				1.00564
				0.997418
				1.00461
				0.997695
				1.00027
				1.00789
				1.00877
				1.00788
				1.00697
				0.98916
				1.00593
				1.0034
				1.00299
				1.00163
				0.99544
				1.00148
				0.983305
				0.995096
				0.975963
				0.991623
				1.00295
				1.00568
				1.0091
				1.00609
				0.997685
				1.0076
				1.00801
				0.998974
				0.994924
				0.982769
				1.00244
				0.999572
				1.00047
				0.998001
				1.00779
				0.996981
				1.00282
				0.999336
				1.00469
				0.997193
				1.006
				1.0023
				1.0061
				1.00415
				1.00098
				1.00848
				0.997928
				1.00781
				1.00648
				1.00381
				0.99149
				0.992988
				1.00295
				1.00606
				0.995559
				0.997805
				1.00099
				1.00203
				0.983782
				1.00644
				0.995171
				1.00258
				0.981729
				1.00556
				1.00744
				1.00527
				1.00793
				0.99771
				0.983651
				1.00248
				0.999224
				0.999763
				1.00058
				0.998031
				0.99674
				1.00744
				1.00054
				1.00264
				0.997694
				1.00539
				1.00168
				1.00149
				1.00432
				1.00518
				1.00644
				1.00349
				0.998392
				1.0072
				1.00556
				0.990701
				0.992842
				0.995854
				1.00379
				0.995744
				1.0058
				1.0025
				0.997075
				1.00194
				1.00608
				1.00126
				1.00218
				0.988949
				0.995849
				1.00443
				1.00482
				1.0076
				0.982373
				1.00612
				0.99818
				0.985538
				1.00198
				1.00151
				0.999458
				0.996837
				0.999717
				1.00244
				0.9975
				1.00673
				1.00084
				1.00198
				1.00602
				0.991072
				1.00363
				0.998189
				1.00474
				1.0018
				1.00476
				1.00313
				1.00701
				1.00529
				1.00623
				1.00382
				0.994826
				1.00246
				0.99598
				0.997859
				1.00561
				0.996092
				1.00079
				0.988848
				1.00441
				1.0019
				1.00605
				0.996121
				1.00226
				1.0052
				1.0041
				1.00662
				0.986413
				0.9869
				0.998105
				1.00202
				1.00156
				0.999889
				0.999509
				0.997318
				0.990556
				1.00642
				1.00159
				0.997738
				1.00215
				0.995414
				1.00425
				0.998888
				1.00134
				1.00333
				1.00409
				1.00516
				1.00516
				1.00592
				1.00379
				1.00267
				1.00442
				0.994659
				1.00527
				0.997785
				1.00212
				0.995616
				1.00097
				0.991601
				1.00157
				1.00384
				1.00226
				1.00519
				0.988653
				1.00349
				1.00637
				1.00506
				0.998692
				0.997778
				0.987118
				0.999555
				1.00164
				1.00188
				0.991826
				0.997145
				0.999409
				1.00239
				1.00162
				1.00578
				0.995354
				0.997509
				1.00285
				0.998621
				1.00378
				1.00144
				1.00373
				1.00375
				1.00515
				1.00577
				1.00239
				1.00418
				1.00505
				1.00214
				0.995693
				0.996841
				0.996516
				1.00416
				1.00057
				1.00356
				1.00498
				0.991516
				1.00141
				1.00553
				1.00322
				0.989655
				0.999522
				0.99848