<VTKFile type="UnstructuredGrid" version="0.1" byte_order="LittleEndian">
<UnstructuredGrid>
	<Piece NumberOfPoints="1485" NumberOfCells="2857">
		<PointData Scalars="density" Vectors="velocity">
			<DataArray type="Float64" Name="density" Format="ascii">
				0.281055
				0.249586
				0.24979
				0.250112
				0.250412
				0.272693
				0.268053
				0.264546
				0.261475
				0.258749
				0.25643
				0.254546
				0.253066
				0.25209
				0.252072
				0.253118
				0.223419
				0.178061
				0.172522
				0.173384
				0.174351
				0.175172
				0.176033
				0.17707
				0.178266
				0.179609
				0.181197
				0.182854
				0.184679
				0.186774
				0.189152
				0.192505
				0.195863
				0.198658
				0.201717
				0.205513
				0.209676
				0.214011
				0.218945
				0.22516
				0.232668
				0.24204
				0.254855
				0.272008
				0.297323
				0.330945
				0.344628
				0.315213
				0.275597
				0.247693
				0.232142
				0.220155
				0.212194
				0.206308
				0.201164
				0.196433
				0.192118
				0.188743
				0.185451
				0.182233
				0.178908
				0.175733
				0.172885
				0.170274
				0.167967
				0.165949
				0.164172
				0.162452
				0.160874
				0.159534
				0.158464
				0.157493
				0.156585
				0.155918
				0.155498
				0.154932
				0.154185
				0.153177
				0.151845
				0.150792
				0.150356
				0.150086
				0.174257
				0.239229
				0.260198
				0.263184
				0.266152
				0.269464
				0.274119
				0.249726
				0.249897
				0.24988
				0.249838
				0.249733
				0.249715
				0.249951
				0.250077
				0.250129
				0.250129
				0.250118
				0.250129
				0.250122
				0.250139
				0.250163
				0.250234
				0.250312
				0.250367
				0.250405
				0.250395
				0.250271
				0.250149
				0.250066
				0.249914
				0.336282
				0.33463
				0.316343
				0.318896
				0.328159
				0.297325
				0.291625
				0.270435
				0.323676
				0.32225
				0.304126
				0.290412
				0.307058
				0.271417
				0.250838
				0.310512
				0.317575
				0.317665
				0.289157
				0.274929
				0.256423
				0.255828
				0.236043
				0.27293
				0.310935
				0.31167
				0.294209
				0.243824
				0.224334
				0.242303
				0.299231
				0.275607
				0.258966
				0.285845
				0.309938
				0.23438
				0.216104
				0.307975
				0.302941
				0.209306
				0.307752
				0.22054
				0.226703
				0.25928
				0.272727
				0.230567
				0.247375
				0.203402
				0.215561
				0.301803
				0.302699
				0.286137
				0.221679
				0.198302
				0.23782
				0.294019
				0.301987
				0.246009
				0.292825
				0.260406
				0.210962
				0.274655
				0.282527
				0.302278
				0.276864
				0.194099
				0.213937
				0.206679
				0.229917
				0.299628
				0.295474
				0.190404
				0.260547
				0.203024
				0.299286
				0.2717
				0.207118
				0.234645
				0.223941
				0.249644
				0.271813
				0.186906
				0.19986
				0.294448
				0.278286
				0.285753
				0.183383
				0.202451
				0.218761
				0.294937
				0.196534
				0.287854
				0.225591
				0.240339
				0.248203
				0.179994
				0.268462
				0.278817
				0.280907
				0.295966
				0.260951
				0.197631
				0.193038
				0.213847
				0.273128
				0.294779
				0.295233
				0.17682
				0.279369
				0.277262
				0.190073
				0.271214
				0.273455
				0.216529
				0.232626
				0.173945
				0.193773
				0.209615
				0.187663
				0.292473
				0.289737
				0.17134
				0.260564
				0.27493
				0.265133
				0.185592
				0.189628
				0.212111
				0.27023
				0.274043
				0.169044
				0.236724
				0.227218
				0.205733
				0.251145
				0.292161
				0.183707
				0.166995
				0.266631
				0.186068
				0.181982
				0.288178
				0.201789
				0.165108
				0.272277
				0.279212
				0.205943
				0.180415
				0.221778
				0.163363
				0.290067
				0.18246
				0.179042
				0.224777
				0.198104
				0.161818
				0.284157
				0.288661
				0.283431
				0.24194
				0.271779
				0.17783
				0.249298
				0.261957
				0.160504
				0.290134
				0.260229
				0.179308
				0.202427
				0.176793
				0.159366
				0.288939
				0.216484
				0.195149
				0.272704
				0.175849
				0.273127
				0.263321
				0.158351
				0.174878
				0.176244
				0.270545
				0.157511
				0.270293
				0.173882
				0.156868
				0.191967
				0.28857
				0.276927
				0.236884
				0.172751
				0.196806
				0.156242
				0.269201
				0.198183
				0.155509
				0.17367
				0.212516
				0.247743
				0.154571
				0.252765
				0.189598
				0.153415
				0.258941
				0.252333
				0.152348
				0.252996
				0.151612
				0.286222
				0.254273
				0.151163
				0.255899
				0.15094
				0.171178
				0.260504
				0.193779
				0.284101
				0.258011
				0.187309
				0.260108
				0.214475
				0.206246
				0.207447
				0.26847
				0.230685
				0.169
				0.237955
				0.249269
				0.185374
				0.271389
				0.270682
				0.269262
				0.166961
				0.188941
				0.183553
				0.286079
				0.281408
				0.203349
				0.277357
				0.165272
				0.181975
				0.285207
				0.223836
				0.163642
				0.269096
				0.18638
				0.267538
				0.180485
				0.20108
				0.285583
				0.162237
				0.179266
				0.16095
				0.182037
				0.178055
				0.249806
				0.282961
				0.204823
				0.283448
				0.284821
				0.160005
				0.227474
				0.197302
				0.17694
				0.220248
				0.259291
				0.159087
				0.266638
				0.175869
				0.265338
				0.158151
				0.179964
				0.174624
				0.157255
				0.26935
				0.195015
				0.178825
				0.156295
				0.239959
				0.223141
				0.155214
				0.268497
				0.253062
				0.154482
				0.176232
				0.252661
				0.153793
				0.260788
				0.214061
				0.253104
				0.153013
				0.254093
				0.152244
				0.274319
				0.191524
				0.267792
				0.255587
				0.264125
				0.242588
				0.171637
				0.257381
				0.259577
				0.266273
				0.282943
				0.269937
				0.174403
				0.262293
				0.280961
				0.278863
				0.189885
				0.196254
				0.171196
				0.20908
				0.258375
				0.230869
				0.187096
				0.239661
				0.218321
				0.169937
				0.266017
				0.268947
				0.250185
				0.185873
				0.167381
				0.183549
				0.268003
				0.267712
				0.268156
				0.166302
				0.281455
				0.280542
				0.188914
				0.182591
				0.164075
				0.203016
				0.180671
				0.266152
				0.163442
				0.276773
				0.273132
				0.280568
				0.280554
				0.179656
				0.161775
				0.264867
				0.277945
				0.177968
				0.279931
				0.160918
				0.177133
				0.221333
				0.159281
				0.278637
				0.233124
				0.247001
				0.177031
				0.158352
				0.182399
				0.208388
				0.199604
				0.156941
				0.241905
				0.196958
				0.256098
				0.156766
				0.263865
				0.25238
				0.155945
				0.252665
				0.155564
				0.253271
				0.259527
				0.154273
				0.254811
				0.153674
				0.243397
				0.256534
				0.203767
				0.258601
				0.260608
				0.262691
				0.266705
				0.265424
				0.176826
				0.265776
				0.191789
				0.270792
				0.263403
				0.263851
				0.26572
				0.267054
				0.277565
				0.276351
				0.199901
				0.274344
				0.172261
				0.213075
				0.187641
				0.223704
				0.256913
				0.234269
				0.263898
				0.276995
				0.168525
				0.184024
				0.165194
				0.2651
				0.192366
				0.275859
				0.238069
				0.180965
				0.265102
				0.205947
				0.265883
				0.161983
				0.276688
				0.185929
				0.263386
				0.275713
				0.262211
				0.159731
				0.246959
				0.229587
				0.265426
				0.27262
				0.269259
				0.273524
				0.158265
				0.252677
				0.263444
				0.185747
				0.260712
				0.156488
				0.25435
				0.274489
				0.241671
				0.182772
				0.25952
				0.248338
				0.199666
				0.213322
				0.225119
				0.256384
				0.261784
				0.263386
				0.274259
				0.180084
				0.194365
				0.264193
				0.262629
				0.267503
				0.261636
				0.265371
				0.175345
				0.204468
				0.189824
				0.263251
				0.273016
				0.229161
				0.256761
				0.216738
				0.272286
				0.270332
				0.171056
				0.254285
				0.238343
				0.185953
				0.26203
				0.260782
				0.166998
				0.273608
				0.18346
				0.260946
				0.272757
				0.243212
				0.196674
				0.271591
				0.164011
				0.205579
				0.209392
				0.262652
				0.272509
				0.161777
				0.272184
				0.250556
				0.246472
				0.159624
				0.26247
				0.252911
				0.241226
				0.175523
				0.261122
				0.263681
				0.189981
				0.26585
				0.255333
				0.258613
				0.268944
				0.203022
				0.269624
				0.27093
				0.218828
				0.228459
				0.184124
				0.25999
				0.262569
				0.263261
				0.19728
				0.269793
				0.263157
				0.259317
				0.178711
				0.261908
				0.250004
				0.192412
				0.261151
				0.259524
				0.264052
				0.208949
				0.234987
				0.257607
				0.17367
				0.220123
				0.189051
				0.269103
				0.240298
				0.266846
				0.268716
				0.169893
				0.269408
				0.192364
				0.260529
				0.166778
				0.229172
				0.201052
				0.163731
				0.251877
				0.267873
				0.161506
				0.212896
				0.26943
				0.209535
				0.269192
				0.253255
				0.256916
				0.258567
				0.260422
				0.259264
				0.259481
				0.260833
				0.194176
				0.258359
				0.206041
				0.249949
				0.26276
				0.222558
				0.267612
				0.266213
				0.265563
				0.231464
				0.187484
				0.199782
				0.266871
				0.257815
				0.261451
				0.257205
				0.243969
				0.261429
				0.181237
				0.266664
				0.195485
				0.26138
				0.260677
				0.261214
				0.176862
				0.212851
				0.260207
				0.193628
				0.257773
				0.258487
				0.223541
				0.17275
				0.253561
				0.2162
				0.168925
				0.2432
				0.265753
				0.235057
				0.246277
				0.258537
				0.263803
				0.265583
				0.165708
				0.26713
				0.176651
				0.205193
				0.251129
				0.236962
				0.254553
				0.256873
				0.266127
				0.216043
				0.264712
				0.266213
				0.197085
				0.208088
				0.258719
				0.258122
				0.25951
				0.260457
				0.259967
				0.224918
				0.19012
				0.264421
				0.202593
				0.26327
				0.235389
				0.264694
				0.262237
				0.245744
				0.259627
				0.186307
				0.20063
				0.259704
				0.256114
				0.254424
				0.25635
				0.247263
				0.180399
				0.256786
				0.204555
				0.263776
				0.26361
				0.216582
				0.258677
				0.176876
				0.231115
				0.226473
				0.171551
				0.255494
				0.256308
				0.258631
				0.170068
				0.249655
				0.202405
				0.260127
				0.236389
				0.262904
				0.26383
				0.257171
				0.260997
				0.207234
				0.262614
				0.217088
				0.263169
				0.246485
				0.261996
				0.254793
				0.19928
				0.210954
				0.261626
				0.256459
				0.257295
				0.228534
				0.236638
				0.25044
				0.257471
				0.253282
				0.257135
				0.189271
				0.260722
				0.259087
				0.214364
				0.257874
				0.241319
				0.261973
				0.258366
				0.254569
				0.179921
				0.216894
				0.237767
				0.261476
				0.257846
				0.255525
				0.251859
				0.255678
				0.25432
				0.225253
				0.200581
				0.256728
				0.261133
				0.255147
				0.245839
				0.258013
				0.25709
				0.261235
				0.260497
				0.258802
				0.260625
				0.260264
				0.255965
				0.259724
				0.204184
				0.217817
				0.23319
				0.245908
				0.244677
				0.25322
				0.259526
				0.252839
				0.25506
				0.24927
				0.254811
				0.238563
				0.256054
				0.192826
				0.255727
				0.259528
				0.227199
				0.256426
				0.258596
				0.185275
				0.259717
				0.245612
				0.255368
				0.252892
				0.253998
				0.255683
				0.255713
				0.25361
				0.257424
				0.259326
				0.219993
				0.259088
				0.227951
				0.217396
				0.256425
				0.254346
				0.253882
				0.259043
				0.255654
				0.258585
				0.256865
				0.242584
				0.258594
				0.252385
				0.258256
				0.254628
				0.257866
				0.207559
				0.257858
				0.22605
				0.245874
				0.250549
				0.252798
				0.231924
				0.197339
				0.250298
				0.252312
				0.237962
				0.249283
				0.257694
				0.253063
				0.23745
				0.25386
				0.254761
				0.193649
				0.255094
				0.257896
				0.253292
				0.257854
				0.25676
				0.252913
				0.252614
				0.254901
				0.252788
				0.25423
				0.257452
				0.255966
				0.221216
				0.257278
				0.232506
				0.227275
				0.252493
				0.257297
				0.246434
				0.248971
				0.257089
				0.254436
				0.239923
				0.256548
				0.256945
				0.255299
				0.21036
				0.234345
				0.241436
				0.251351
				0.256181
				0.256674
				0.253689
				0.2444
				0.25622
				0.203264
				0.248853
				0.232792
				0.250965
				0.250708
				0.253207
				0.251644
				0.252329
				0.256005
				0.252281
				0.253092
				0.253931
				0.253629
				0.256327
				0.251034
				0.255225
				0.25398
				0.251704
				0.241707
				0.223371
				0.256099
				0.253164
				0.255635
				0.237265
				0.252485
				0.254918
				0.226711
				0.246691
				0.255965
				0.251797
				0.255274
				0.214147
				0.240761
				0.255655
				0.247121
				0.250439
				0.253382
				0.253942
				0.247806
				0.254826
				0.250767
				0.255345
				0.252862
				0.24288
				0.250391
				0.251279
				0.235178
				0.25482
				0.249909
				0.2513
				0.251462
				0.25237
				0.243785
				0.252762
				0.254635
				0.255133
				0.251545
				0.255076
				0.253061
				0.252747
				0.253167
				0.253966
				0.250194
				0.226025
				0.25104
				0.227671
				0.241307
				0.254946
				0.24427
				0.248402
				0.251991
				0.254272
				0.253831
				0.254988
				0.24522
				0.251127
				0.25412
				0.254527
				0.252645
				0.252836
				0.249578
				0.253649
				0.254275
				0.250192
				0.251917
				0.23786
				0.248886
				0.251529
				0.244946
				0.25056
				0.250538
				0.254158
				0.252179
				0.248901
				0.242164
				0.251515
				0.250736
				0.253604
				0.253658
				0.252385
				0.25407
				0.227754
				0.25261
				0.252058
				0.252942
				0.244674
				0.250569
				0.253961
				0.244464
				0.249588
				0.232451
				0.248633
				0.251147
				0.248054
				0.253029
				0.253199
				0.250643
				0.253156
				0.234623
				0.253621
				0.252016
				0.250784
				0.25199
				0.252719
				0.251144
				0.249452
				0.253434
				0.238812
				0.249996
				0.247372
				0.246495
				0.249757
				0.251459
				0.25001
				0.253301
				0.25182
				0.250315
				0.252798
				0.251175
				0.235371
				0.24859
				0.242415
				0.25183
				0.253275
				0.247128
				0.252768
				0.251569
				0.252143
				0.250316
				0.249308
				0.245073
				0.253041
				0.249022
				0.250578
				0.249482
				0.252447
				0.252402
				0.250348
				0.252418
				0.252836
				0.251492
				0.250958
				0.248297
				0.250623
				0.251348
				0.238509
				0.252015
				0.252775
				0.249329
				0.247873
				0.241814
				0.240309
				0.249684
				0.252545
				0.249696
				0.251138
				0.251446
				0.250999
				0.252166
				0.250063
				0.25137
				0.248447
				0.25262
				0.248676
				0.252101
				0.251138
				0.251538
				0.245727
				0.25028
				0.245578
				0.249067
				0.252351
				0.249495
				0.25011
				0.25016
				0.252004
				0.251806
				0.250177
				0.25186
				0.252297
				0.242486
				0.241059
				0.251118
				0.249839
				0.248616
				0.25066
				0.250904
				0.25149
				0.250866
				0.248899
				0.249554
				0.252255
				0.252003
				0.249042
				0.243744
				0.251142
				0.249753
				0.250909
				0.251688
				0.249932
				0.25212
				0.251047
				0.248238
				0.249565
				0.245533
				0.251602
				0.25084
				0.251093
				0.250054
				0.247099
				0.251935
				0.249768
				0.249308
				0.243716
				0.250407
				0.249803
				0.251834
				0.251365
				0.251718
				0.249894
				0.250036
				0.251437
				0.251823
				0.250844
				0.24884
				0.249598
				0.250832
				0.251109
				0.250544
				0.249517
				0.251873
				0.251552
				0.250526
				0.250923
				0.250494
				0.249079
				0.245584
				0.248047
				0.251315
				0.251726
				0.249768
				0.250819
				0.245808
				0.250062
				0.251166
				0.249936
				0.251231
				0.250652
				0.250794
				0.250032
				0.250076
				0.251503
				0.248112
				0.249366
				0.250538
				0.249386
				0.245376
				0.249764
				0.25104
				0.251517
				0.251119
				0.249945
				0.251496
				0.250012
				0.24921
				0.250653
				0.250758
				0.250059
				0.250834
				0.250364
				0.251555
				0.251248
				0.250669
				0.247575
				0.250751
				0.249105
				0.250482
				0.247086
				0.25104
				0.251412
				0.249702
				0.246452
				0.250662
				0.248908
				0.250349
				0.249976
				0.251111
				0.250954
				0.250499
				0.250349
				0.250576
				0.251253
				0.248637
				0.249418
				0.250618
				0.251175
				0.249752
				0.24961
				0.250802
				0.250879
				0.25131
				0.246834
				0.251196
				0.249903
				0.250519
				0.250154
				0.249329
				0.250329
				0.247586
				0.250637
				0.250223
				0.251298
				0.250981
				0.250727
				0.250643
				0.248822
				0.249396
				0.250418
				0.247968
				0.250823
				0.251161
				0.247312
				0.24971
				0.25055
				0.250479
				0.25102
				0.249858
				0.250494
				0.250748
				0.250398
				0.250434
				0.250973
				0.248831
				0.249967
				0.249344
				0.249711
				0.250695
				0.250575
				0.247981
				0.250627
				0.25113
				0.250989
				0.249843
				0.250434
				0.248193
				0.249436
				0.250483
				0.250498
				0.250738
				0.251087
				0.250163
				0.250797
				0.250563
				0.249589
				0.250246
				0.250657
				0.250955
				0.248024
				0.249692
				0.249114
				0.250474
				0.250564
				0.250925
				0.249742
				0.250591
				0.249879
				0.250312
				0.250343
				0.250834
				0.248808
				0.249211
				0.250541
				0.250772
				0.249413
				0.250552
				0.250975
				0.249803
				0.250801
				0.250497
				0.249826
				0.250554
				0.248556
				0.250364
				0.248639
				0.250535
				0.249504
				0.250723
				0.250399
				0.250911
				0.250633
				0.250143
				0.250503
				0.249748
				0.25009
				0.250221
				0.250522
				0.250788
				0.249612
				0.250418
				0.249716
				0.24855
				0.249392
				0.250833
				0.250592
				0.249229
				0.250646
				0.250469
				0.25026
				0.250283
				0.249907
				0.250527
				0.250436
				0.25084
				0.250643
				0.24952
				0.250397
				0.249883
				0.248812
				0.249829
				0.25032
				0.248955
				0.249563
				0.250691
				0.249118
				0.250544
				0.250323
				0.250765
				0.25051
				0.250136
				0.25047
				0.250187
				0.249974
				0.249829
				0.25041
				0.25064
				0.249027
				0.249532
				0.250383
				0.249754
				0.249572
				0.250589
				0.250745
				0.250372
				0.250509
				0.250223
				0.249344
				0.250241
				0.250507
				0.24924
				0.250725
				0.25051
				0.250342
				0.249912
				0.250319
				0.249945
				0.249837
				0.250293
				0.249618
				0.250649
				0.249639
				0.250533
				0.250268
				0.250634
				0.250397
				0.249822
				0.250127
				0.250443
				0.250141
				0.24923
				0.249325
				0.250516
				0.250315
				0.249911
				0.250368
				0.249769
				0.250577
				0.249533
				0.249706
				0.250664
				0.250289
				0.250376
				0.250199
				0.250209
				0.249542
				0.249914
				0.250495
				0.249515
				0.250623
				0.250377
				0.250253
				0.250249
				0.250021
				0.250285
				0.24985
				0.250606
				0.249775
				0.249682
				0.249704
				0.25004
				0.250531
				0.250217
				0.250512
				0.250285
				0.250451
				0.250152
				0.249418
				0.249437
				0.250122
				0.250394
				0.250228
				0.24952
				0.250365
				0.250607
				0.249801
				0.24955
				0.250596
				0.249922
				0.250216
				0.250269
				0.250188
				0.250201
				0.249888
				0.24962
				0.249694
				0.250527
				0.250512
				0.250314
				0.250198
				0.250204
				0.2503
				0.250104
				0.250613
				0.249844
				0.249612
				0.249973
				0.249708
				0.249775
				0.249541
				0.250426
				0.250599
				0.250207
				0.250222
				0.250498
				0.250176
				0.25011
				0.2502
				0.249545
				0.249801
				0.249385
				0.250547
			</DataArray>
			<DataArray type="Float64" Name="mach-number" Format="ascii">
				0.596874
				0.848633
				0.851145
				0.84949
				0.849047
				0.691293
				0.725875
				0.745844
				0.763163
				0.778175
				0.791016
				0.801373
				0.809144
				0.814202
				0.814312
				0.806982
				0.931125
				1.22856
				1.27909
				1.27352
				1.26769
				1.26289
				1.25786
				1.2518
				1.24479
				1.23695
				1.22766
				1.21805
				1.20745
				1.19536
				1.18164
				1.1624
				1.14324
				1.12732
				1.1099
				1.08849
				1.06514
				1.04067
				1.01292
				0.978074
				0.935936
				0.882967
				0.809903
				0.709554
				0.550098
				0.295033
				0.0877019
				0.398616
				0.657823
				0.814453
				0.908609
				0.981014
				1.0318
				1.07028
				1.1033
				1.13218
				1.15771
				1.17782
				1.19726
				1.21642
				1.23613
				1.25504
				1.272
				1.28771
				1.30165
				1.31394
				1.32477
				1.33537
				1.34514
				1.35343
				1.36
				1.36599
				1.37166
				1.37571
				1.37814
				1.38167
				1.38649
				1.39306
				1.40182
				1.40872
				1.41144
				1.41341
				1.16294
				0.794058
				0.713673
				0.695871
				0.67806
				0.658187
				0.618051
				0.849842
				0.850846
				0.850882
				0.851042
				0.851376
				0.851284
				0.850512
				0.849939
				0.849591
				0.849519
				0.849508
				0.849419
				0.849455
				0.849395
				0.849333
				0.849127
				0.848993
				0.849032
				0.849282
				0.84938
				0.849492
				0.849583
				0.849878
				0.84989
				0.268301
				0.283487
				0.443326
				0.425869
				0.359299
				0.564536
				0.607388
				0.720717
				0.403198
				0.408233
				0.537913
				0.624796
				0.516775
				0.726376
				0.830944
				0.496983
				0.447532
				0.445502
				0.628072
				0.713412
				0.813909
				0.813442
				0.913394
				0.721601
				0.491793
				0.489946
				0.602494
				0.879305
				0.978668
				0.890013
				0.567311
				0.707712
				0.798847
				0.647988
				0.501363
				0.930825
				1.02494
				0.512742
				0.548286
				1.06204
				0.517414
				1.00653
				0.972751
				0.795697
				0.723405
				0.953704
				0.861962
				1.09472
				1.03368
				0.551914
				0.550299
				0.648768
				1.00091
				1.12296
				0.913747
				0.603045
				0.554491
				0.868566
				0.607572
				0.791672
				1.05859
				0.713
				0.669146
				0.550641
				0.599379
				1.14699
				1.04155
				1.08208
				0.956802
				0.566212
				0.5938
				1.16814
				0.790213
				1.10246
				0.572076
				0.730676
				1.07778
				0.930851
				0.989145
				0.850029
				0.641295
				1.18841
				1.12032
				0.598214
				0.66386
				0.651088
				1.20906
				1.10295
				1.01682
				0.597549
				1.1392
				0.639154
				0.980207
				0.900412
				0.856945
				1.22905
				0.664416
				0.60143
				0.636103
				0.590805
				0.789528
				1.12895
				1.15884
				1.04343
				0.722391
				0.599862
				0.593912
				1.24783
				0.688597
				0.674323
				1.17582
				0.708767
				0.65271
				1.02838
				0.941932
				1.26501
				1.15019
				1.06644
				1.18954
				0.610604
				0.62722
				1.28067
				0.790276
				0.61994
				0.686587
				1.20146
				1.17305
				1.05236
				0.738836
				0.683794
				1.29464
				0.919839
				0.970708
				1.08772
				0.842909
				0.6151
				1.21229
				1.30715
				0.735967
				1.19348
				1.22232
				0.636781
				1.10936
				1.3188
				0.638996
				0.688429
				1.08606
				1.23142
				1.0002
				1.32961
				0.626993
				1.21407
				1.23949
				0.98446
				1.12915
				1.33931
				0.659862
				0.634195
				0.66488
				0.892163
				0.648419
				1.24658
				0.851814
				0.706278
				1.34755
				0.624924
				0.793874
				1.2327
				1.10515
				1.25272
				1.35475
				0.632003
				1.02885
				1.14546
				0.702347
				1.25828
				0.700626
				0.754775
				1.36115
				1.26406
				1.25057
				0.737016
				1.36652
				0.687928
				1.2698
				1.37058
				1.16289
				0.636875
				0.702003
				0.919754
				1.27506
				1.13651
				1.37456
				0.664928
				1.07767
				1.37922
				1.26615
				1.0503
				0.831342
				1.38527
				0.814085
				1.17623
				1.39277
				0.723154
				0.815818
				1.3998
				0.812033
				1.40461
				0.648459
				0.805273
				1.40728
				0.796184
				1.40852
				1.2811
				0.770617
				1.15411
				0.660749
				0.784377
				1.18914
				0.794233
				1.04017
				0.945692
				1.07677
				0.748847
				0.953083
				1.29457
				0.913574
				0.853121
				1.20034
				0.656711
				0.710979
				0.723001
				1.30705
				1.18072
				1.21087
				0.649999
				0.676701
				1.09933
				0.69972
				1.31769
				1.22018
				0.655827
				0.989536
				1.32787
				0.670606
				1.19642
				0.67771
				1.22897
				1.11169
				0.652599
				1.33694
				1.23624
				1.34507
				1.22035
				1.24349
				0.850494
				0.66754
				1.09318
				0.664683
				0.656485
				1.35124
				0.970299
				1.13287
				1.2502
				1.00888
				0.799699
				1.35716
				0.690706
				1.25649
				0.7444
				1.36344
				1.23367
				1.26447
				1.36911
				0.720998
				1.1463
				1.2317
				1.37542
				0.903212
				0.945032
				1.38245
				0.748653
				0.815413
				1.38723
				1.25436
				0.815821
				1.39175
				0.719521
				1.04222
				0.813064
				1.3968
				0.807374
				1.40228
				0.716666
				1.16553
				0.715749
				0.798733
				0.701017
				0.787516
				1.19394
				0.788841
				0.777009
				0.685604
				0.668753
				0.717389
				1.26662
				0.761502
				0.67959
				0.691393
				1.17561
				1.14176
				1.28458
				1.06936
				0.804318
				0.952143
				1.19078
				0.905159
				1.01882
				1.29347
				0.762986
				0.678926
				0.848958
				1.19868
				1.3077
				1.21135
				0.728085
				0.729816
				0.687416
				1.31561
				0.675802
				0.681803
				1.18401
				1.21775
				1.32824
				1.10343
				1.22822
				0.697407
				1.33322
				0.703375
				0.723399
				0.68232
				0.681486
				1.23507
				1.34239
				0.714049
				0.696706
				1.24423
				0.684769
				1.34886
				1.25049
				1.00375
				1.3582
				0.69287
				0.940523
				0.865646
				1.24866
				1.36503
				1.222
				1.07307
				1.08252
				1.37318
				0.856469
				1.13804
				0.817137
				1.37508
				0.700396
				0.811391
				1.37964
				0.811496
				1.38283
				0.807574
				0.739162
				1.39059
				0.800541
				1.39408
				0.885836
				0.790626
				0.974285
				0.780119
				0.768698
				0.720735
				0.735513
				0.765655
				1.25495
				0.701515
				1.1676
				0.736331
				0.752523
				0.707517
				0.735527
				0.73304
				0.699144
				0.706052
				1.12047
				0.716893
				1.2823
				1.04861
				1.19144
				0.990711
				0.811994
				0.934425
				0.774032
				0.701928
				1.30494
				1.21239
				1.32533
				0.744573
				1.16332
				0.708588
				0.914269
				1.23028
				0.708334
				1.08792
				0.73943
				1.34524
				0.70342
				1.1877
				0.717491
				0.709412
				0.716443
				1.35929
				0.865839
				0.916001
				0.706153
				0.726234
				0.744871
				0.721622
				1.36838
				0.814537
				0.732559
				1.2014
				0.735625
				1.37983
				0.805696
				0.716556
				0.806708
				1.13057
				0.774651
				0.858301
				1.12298
				1.04619
				0.983293
				0.814959
				0.717454
				0.718876
				0.717862
				1.23457
				1.15296
				0.752883
				0.780994
				0.753763
				0.72552
				0.745855
				1.2628
				1.09437
				1.17893
				0.748517
				0.724943
				0.961164
				0.792779
				1.02849
				0.728168
				0.739171
				1.2888
				0.827125
				0.911797
				1.20123
				0.76365
				0.790846
				1.31376
				0.720164
				1.21494
				0.737047
				0.725829
				0.886978
				1.13827
				0.732457
				1.33236
				1.05617
				1.06807
				0.759531
				0.727394
				1.34639
				0.729285
				0.84589
				0.848178
				1.36005
				0.725126
				0.82102
				0.808443
				1.201
				0.7328
				0.758968
				1.17652
				0.763715
				0.808588
				0.787847
				0.746031
				1.10342
				0.743171
				0.735935
				1.01628
				0.965042
				1.21039
				0.731518
				0.723582
				0.720331
				1.13574
				0.742456
				0.765005
				0.799497
				1.2425
				0.769833
				0.850861
				1.16347
				0.760687
				0.740888
				0.773008
				1.07017
				0.930105
				0.808582
				1.27246
				1.00965
				1.18267
				0.746333
				0.901069
				0.758494
				0.747547
				1.29535
				0.744206
				1.15679
				0.781911
				1.31425
				0.932539
				1.11407
				1.33307
				0.8326
				0.752842
				1.34515
				1.04846
				0.744542
				0.961027
				0.745274
				0.826157
				0.805137
				0.740685
				0.774435
				0.754178
				0.748516
				0.740016
				1.1527
				0.746218
				1.08628
				0.850107
				0.78088
				0.996677
				0.754111
				0.762043
				0.765147
				0.948411
				1.19094
				1.12108
				0.758329
				0.747373
				0.738164
				0.811273
				0.883857
				0.780838
				1.22557
				0.759956
				1.14436
				0.781401
				0.792323
				0.741258
				1.2509
				1.04841
				0.784811
				1.15473
				0.755637
				0.774006
				0.990822
				1.27418
				0.831997
				1.01182
				1.29744
				0.886507
				0.764584
				0.930364
				0.861956
				0.799717
				0.775304
				0.765398
				1.318
				0.757161
				1.20593
				1.08986
				0.845376
				0.848153
				0.822905
				0.758582
				0.762373
				1.03098
				0.770315
				0.762063
				1.13337
				1.07387
				0.78903
				0.766124
				0.760079
				0.761058
				0.796153
				0.984019
				1.1726
				0.772451
				1.10416
				0.778162
				0.928865
				0.770264
				0.783916
				0.873292
				0.793917
				1.19409
				1.11663
				0.765506
				0.7603
				0.826688
				0.774666
				0.865258
				1.22797
				0.813958
				1.09423
				0.77545
				0.776683
				1.028
				0.799732
				1.24971
				0.940049
				0.97658
				1.28104
				0.817408
				0.771743
				0.797791
				1.29069
				0.84726
				1.03745
				0.791893
				0.923149
				0.780281
				0.774985
				0.791349
				0.790724
				1.07844
				0.781971
				1.02657
				0.778533
				0.820649
				0.785052
				0.767235
				1.12316
				1.06119
				0.787328
				0.782435
				0.802397
				0.964845
				0.921875
				0.847818
				0.778308
				0.832867
				0.811697
				1.18096
				0.792117
				0.801206
				1.03842
				0.804722
				0.896819
				0.785363
				0.775286
				0.774392
				1.23667
				1.02718
				0.906259
				0.787941
				0.805041
				0.817822
				0.838036
				0.79114
				0.779602
				0.982795
				1.06721
				0.778799
				0.790049
				0.786679
				0.872985
				0.804273
				0.808471
				0.789164
				0.793217
				0.802608
				0.792634
				0.79467
				0.804111
				0.797423
				1.09669
				1.02363
				0.940116
				0.872148
				0.835956
				0.780137
				0.79873
				0.834421
				0.822664
				0.854239
				0.79532
				0.911032
				0.812477
				1.16071
				0.789479
				0.798706
				0.966812
				0.81356
				0.803698
				1.20144
				0.797594
				0.869889
				0.790522
				0.833082