<VTKFile type="UnstructuredGrid" version="0.1" byte_order="LittleEndian">
<UnstructuredGrid>
	<Piece NumberOfPoints="1485" NumberOfCells="2857">
		<PointData Scalars="density" Vectors="velocity">
			<DataArray type="Float64" Name="density" Format="ascii">
				0.283304
				0.249391
				0.249681
				0.250167
				0.250544
				0.27328
				0.268709
				0.265128
				0.261911
				0.259057
				0.256624
				0.254526
				0.252831
				0.251546
				0.25069
				0.250425
				0.245211
				0.195774
				0.173104
				0.174097
				0.17519
				0.176014
				0.176826
				0.177761
				0.178829
				0.180183
				0.1818
				0.183289
				0.185128
				0.187128
				0.189091
				0.192771
				0.196284
				0.198812
				0.20183
				0.205797
				0.209801
				0.214014
				0.219053
				0.225431
				0.233089
				0.242511
				0.255373
				0.272557
				0.296996
				0.327528
				0.339924
				0.313904
				0.274732
				0.248526
				0.232855
				0.220748
				0.212658
				0.206601
				0.20133
				0.196373
				0.191684
				0.188353
				0.184951
				0.18199
				0.178802
				0.175672
				0.172849
				0.170184
				0.167902
				0.165908
				0.164147
				0.162364
				0.1607
				0.159179
				0.157941
				0.156929
				0.15609
				0.155653
				0.155433
				0.154918
				0.154227
				0.153133
				0.151308
				0.1499
				0.149673
				0.149782
				0.149509
				0.21344
				0.260236
				0.262078
				0.265448
				0.268914
				0.272556
				0.249601
				0.249836
				0.249757
				0.249695
				0.2496
				0.249564
				0.249906
				0.250085
				0.250177
				0.250183
				0.250172
				0.250165
				0.250181
				0.250199
				0.250236
				0.250302
				0.250397
				0.250505
				0.250551
				0.250505
				0.25037
				0.250229
				0.250164
				0.249905
				0.334534
				0.332812
				0.315452
				0.317868
				0.328019
				0.295883
				0.291246
				0.269704
				0.322957
				0.322224
				0.30366
				0.289536
				0.306966
				0.271297
				0.250606
				0.310182
				0.317422
				0.317629
				0.289218
				0.274126
				0.256067
				0.255793
				0.235835
				0.273133
				0.310924
				0.311453
				0.293457
				0.243875
				0.224246
				0.242119
				0.299218
				0.274968
				0.259249
				0.28593
				0.309849
				0.23443
				0.215969
				0.307969
				0.302692
				0.209042
				0.307573
				0.220385
				0.226649
				0.259037
				0.272938
				0.230406
				0.247704
				0.203079
				0.215412
				0.301819
				0.302477
				0.285808
				0.221511
				0.197721
				0.23807
				0.293764
				0.301872
				0.245854
				0.292828
				0.260732
				0.211003
				0.274351
				0.282593
				0.302243
				0.276432
				0.193421
				0.213684
				0.206689
				0.230021
				0.299666
				0.295298
				0.189688
				0.260417
				0.202973
				0.299141
				0.271894
				0.206631
				0.234494
				0.224034
				0.250021
				0.271479
				0.186333
				0.19996
				0.294491
				0.27892
				0.285459
				0.182984
				0.202023
				0.21891
				0.294817
				0.196687
				0.287835
				0.22548
				0.24055
				0.248141
				0.179731
				0.267788
				0.27891
				0.281127
				0.295906
				0.261228
				0.196905
				0.192985
				0.213971
				0.272856
				0.294647
				0.295253
				0.176604
				0.279467
				0.277478
				0.190099
				0.271696
				0.272858
				0.216092
				0.232754
				0.17374
				0.193286
				0.209733
				0.187904
				0.292529
				0.289636
				0.171143
				0.260501
				0.274553
				0.264085
				0.18592
				0.189189
				0.211717
				0.270415
				0.273734
				0.168873
				0.236615
				0.227452
				0.205933
				0.251369
				0.292014
				0.184125
				0.166846
				0.267167
				0.18578
				0.182469
				0.288207
				0.201924
				0.164941
				0.271781
				0.279081
				0.205516
				0.180917
				0.221968
				0.163131
				0.289968
				0.1823
				0.179614
				0.224455
				0.198165
				0.161456
				0.284049
				0.288536
				0.283498
				0.241969
				0.271293
				0.178507
				0.249308
				0.259992
				0.159996
				0.290106
				0.260458
				0.179178
				0.201858
				0.177552
				0.158772
				0.288938
				0.216567
				0.195448
				0.272871
				0.176635
				0.273403
				0.263713
				0.157776
				0.175615
				0.176168
				0.270425
				0.157066
				0.269956
				0.174586
				0.156598
				0.192107
				0.288449
				0.277016
				0.236885
				0.176939
				0.196418
				0.156097
				0.268857
				0.222283
				0.15544
				0.173593
				0.212902
				0.251421
				0.154446
				0.251098
				0.189906
				0.152998
				0.249498
				0.251677
				0.151639
				0.252634
				0.150872
				0.28623
				0.254104
				0.150578
				0.255974
				0.150327
				0.171078
				0.260768
				0.193231
				0.284004
				0.258213
				0.187848
				0.260028
				0.214021
				0.176871
				0.207598
				0.268616
				0.230815
				0.168861
				0.237886
				0.249381
				0.185909
				0.271004
				0.270552
				0.269622
				0.166783
				0.188567
				0.184146
				0.285976
				0.281423
				0.203264
				0.277268
				0.164982
				0.182663
				0.285107
				0.223725
				0.16328
				0.268962
				0.186011
				0.26675
				0.181196
				0.201412
				0.285546
				0.161837
				0.180039
				0.160523
				0.181906
				0.17886
				0.249752
				0.2829
				0.204341
				0.28346
				0.284821
				0.159626
				0.22718
				0.19773
				0.177717
				0.22048
				0.259445
				0.158753
				0.266491
				0.176703
				0.265765
				0.157869
				0.179777
				0.175825
				0.157102
				0.269492
				0.195173
				0.196024
				0.156058
				0.239996
				0.241405
				0.154721
				0.268386
				0.251765
				0.154014
				0.176141
				0.252256
				0.153475
				0.259302
				0.21431
				0.252613
				0.152565
				0.253807
				0.15165
				0.274368
				0.191905
				0.2676
				0.255618
				0.262361
				0.214849
				0.152425
				0.257565
				0.259856
				0.266267
				0.282819
				0.270241
				0.17412
				0.262674
				0.280971
				0.278804
				0.190346
				0.195719
				0.170917
				0.209136
				0.258302
				0.230892
				0.187668
				0.23951
				0.218
				0.169503
				0.266127
				0.268566
				0.250295
				0.1865
				0.166972
				0.184293
				0.268382
				0.267619
				0.267883
				0.165952
				0.281403
				0.280446
				0.188502
				0.183257
				0.16381
				0.203256
				0.181385
				0.266086
				0.163194
				0.276796
				0.273044
				0.280462
				0.280513
				0.180336
				0.161508
				0.264793
				0.277885
				0.178725
				0.27991
				0.16057
				0.178143
				0.221424
				0.158926
				0.278628
				0.232897
				0.246884
				0.181781
				0.157745
				0.182053
				0.208021
				0.216563
				0.156227
				0.249287
				0.197197
				0.256231
				0.156262
				0.263924
				0.252917
				0.155808
				0.252559
				0.155382
				0.253111
				0.246852
				0.153867
				0.254825
				0.153125
				0.243466
				0.256897
				0.178982
				0.25906
				0.261297
				0.260273
				0.266869
				0.265351
				0.17635
				0.265029
				0.192191
				0.270875
				0.264051
				0.263778
				0.265662
				0.267481
				0.277463
				0.276344
				0.199503
				0.274267
				0.171802
				0.213193
				0.188211
				0.223412
				0.256868
				0.234308
				0.264014
				0.276918
				0.168271
				0.184617
				0.164927
				0.265256
				0.191967
				0.275777
				0.237914
				0.18164
				0.26475
				0.206169
				0.266439
				0.161297
				0.276639
				0.192329
				0.263104
				0.275675
				0.262355
				0.159067
				0.247108
				0.238359
				0.265094
				0.272659
				0.26918
				0.273441
				0.157957
				0.252989
				0.263329
				0.1853
				0.259646
				0.156324
				0.254304
				0.274444
				0.216995
				0.167598
				0.260082
				0.248297
				0.2
				0.212974
				0.22518
				0.256561
				0.261805
				0.264951
				0.274197
				0.179689
				0.194811
				0.264508
				0.262547
				0.267599
				0.261426
				0.265794
				0.175117
				0.204047
				0.19038
				0.263292
				0.272939
				0.228965
				0.257123
				0.216914
				0.272287
				0.270247
				0.17086
				0.25416
				0.23836
				0.18659
				0.262627
				0.260893
				0.166472
				0.273587
				0.184376
				0.260947
				0.272757
				0.243096
				0.196125
				0.271525
				0.163438
				0.214886
				0.209708
				0.262916
				0.272493
				0.161373
				0.272133
				0.250717
				0.249985
				0.159401
				0.262065
				0.252944
				0.229004
				0.164514
				0.260676
				0.264183
				0.189564
				0.265782
				0.255401
				0.259005
				0.26901
				0.203439
				0.269544
				0.270876
				0.21855
				0.228548
				0.183952
				0.259943
				0.263609
				0.262615
				0.197729
				0.269762
				0.26358
				0.259285
				0.178518
				0.262223
				0.249889
				0.192989
				0.261139
				0.25912
				0.264175
				0.208364
				0.234909
				0.257735
				0.17317
				0.220411
				0.189771
				0.26903
				0.240336
				0.266771
				0.268729
				0.169523
				0.269368
				0.199498
				0.260924
				0.166509
				0.236549
				0.200481
				0.163445
				0.251307
				0.267802
				0.161016
				0.213287
				0.269374
				0.195055
				0.269197
				0.253068
				0.257182
				0.258687
				0.260706
				0.259165
				0.258778
				0.260161
				0.193931
				0.254524
				0.206424
				0.25009
				0.26272
				0.222302
				0.267608
				0.266135
				0.265636
				0.231586
				0.187301
				0.20028
				0.266837
				0.257699
				0.260565
				0.257156
				0.24387
				0.261519
				0.180724
				0.266605
				0.195961
				0.26155
				0.260764
				0.260633
				0.17658
				0.21217
				0.260366
				0.19614
				0.257171
				0.258592
				0.223903
				0.172687
				0.253651
				0.223488
				0.168832
				0.243289
				0.265703
				0.235066
				0.247488
				0.258572
				0.263728
				0.265603
				0.165531
				0.267072
				0.168503
				0.204913
				0.251072
				0.226332
				0.254188
				0.256911
				0.26612
				0.216463
				0.264652
				0.266214
				0.196787
				0.208501
				0.258982
				0.257517
				0.25897
				0.260411
				0.259881
				0.224624
				0.189536
				0.264407
				0.203132
				0.263203
				0.235521
				0.264708
				0.262287
				0.24569
				0.259583
				0.186
				0.201801
				0.259876
				0.255852
				0.254313
				0.256419
				0.247428
				0.180385
				0.256873
				0.209118
				0.263812
				0.263585
				0.216105
				0.258605
				0.17674
				0.234725
				0.226912
				0.171546
				0.255484
				0.255689
				0.258669
				0.169485
				0.250101
				0.19236
				0.26007
				0.236511
				0.262869
				0.26385
				0.257391
				0.26093
				0.206829
				0.262652
				0.217478
				0.263176
				0.242601
				0.261955
				0.254704
				0.19877
				0.211657
				0.261619
				0.256156
				0.257399
				0.228315
				0.236949
				0.250327
				0.257376
				0.253399
				0.257029
				0.188959
				0.260677
				0.259144
				0.216872
				0.2579
				0.241299
				0.261999
				0.258329
				0.254062
				0.179672
				0.21643
				0.239782
				0.261492
				0.257946
				0.255629
				0.25225
				0.25586
				0.254426
				0.225794
				0.193384
				0.258525
				0.261101
				0.254682
				0.246051
				0.258095
				0.257093
				0.261246
				0.260456
				0.258739
				0.260644
				0.260307
				0.256096
				0.259684
				0.203796
				0.218929
				0.233023
				0.245783
				0.240308
				0.253004
				0.259521
				0.25272
				0.255178
				0.24942
				0.254817
				0.238962
				0.256068
				0.192718
				0.255816
				0.259504
				0.229275
				0.256519
				0.258555
				0.183909
				0.25975
				0.246754
				0.255737
				0.253142
				0.254186
				0.255624
				0.255924
				0.253087
				0.257514
				0.259331
				0.219659
				0.259058
				0.22877
				0.209434
				0.256574
				0.255262
				0.253741
				0.259059
				0.255709
				0.258554
				0.256815
				0.242516
				0.258619
				0.252376
				0.258304
				0.254753
				0.257819
				0.20735
				0.257852
				0.227335
				0.246107
				0.250467
				0.25295
				0.231732
				0.197336
				0.248869
				0.25188
				0.239442
				0.249903
				0.257692
				0.253222
				0.237941
				0.253899
				0.254737
				0.188867
				0.255227
				0.257896
				0.253569
				0.257887
				0.256713
				0.252642
				0.252758
				0.255098
				0.25245
				0.254165
				0.257462
				0.256045
				0.22098
				0.257279
				0.233332
				0.222901
				0.252553
				0.257313
				0.246392
				0.249213
				0.257083
				0.254502
				0.239794
				0.256545
				0.256967
				0.255239
				0.21003
				0.235518
				0.241826
				0.251137
				0.256154
				0.256719
				0.253714
				0.245307
				0.256219
				0.199946
				0.248203
				0.23251
				0.250886
				0.251088
				0.253335
				0.251215
				0.252149
				0.256008
				0.251942
				0.253334
				0.254045
				0.253634
				0.256363
				0.250992
				0.255186
				0.254149
				0.251594
				0.241542
				0.222986
				0.256111
				0.253085
				0.255627
				0.237955
				0.252583
				0.254989
				0.224121
				0.247011
				0.255984
				0.251677
				0.255276
				0.212476
				0.241608
				0.25568
				0.247104
				0.250691
				0.253456
				0.253889
				0.248348
				0.254802
				0.250476
				0.255406
				0.252855
				0.243287
				0.249914
				0.251537
				0.234927
				0.254811
				0.249851
				0.251146
				0.251367
				0.25252
				0.242651
				0.252932
				0.254643
				0.255148
				0.251562
				0.255126
				0.253144
				0.252781
				0.253292
				0.253927
				0.250077
				0.225243
				0.250884
				0.225682
				0.24189
				0.254978
				0.244167
				0.248682
				0.251931
				0.254254
				0.25393
				0.255023
				0.245844
				0.251084
				0.25412
				0.254569
				0.252694
				0.252784
				0.249933
				0.253621
				0.254348
				0.249958
				0.251906
				0.237597
				0.248688
				0.251749
				0.245323
				0.250545
				0.250544
				0.254175
				0.252346
				0.24884
				0.241168
				0.251687
				0.250755
				0.253615
				0.253649
				0.252465
				0.254127
				0.226329
				0.252722
				0.25208
				0.252902
				0.245189
				0.250491
				0.253992
				0.244345
				0.249423
				0.231882
				0.248895
				0.251082
				0.248491
				0.25313
				0.253182
				0.250663
				0.253158
				0.232807
				0.253662
				0.252055
				0.251012
				0.251934
				0.252691
				0.251105
				0.249446
				0.253504
				0.238512
				0.249895
				0.247258
				0.246841
				0.249617
				0.25144
				0.250039
				0.25332
				0.251955
				0.250336
				0.252806
				0.251339
				0.234367
				0.248495
				0.241579
				0.251901
				0.253327
				0.247531
				0.252759
				0.251574
				0.252103
				0.250289
				0.249088
				0.244928
				0.253066
				0.249258
				0.250497
				0.249776
				0.252546
				0.252383
				0.250366
				0.252414
				0.252869
				0.251529
				0.25112
				0.24816
				0.25062
				0.25129
				0.237978
				0.251986
				0.252841
				0.249309
				0.248163
				0.241617
				0.23935
				0.249635
				0.252554
				0.249536
				0.251166
				0.251544
				0.25114
				0.252163
				0.250033
				0.251421
				0.248331
				0.252665
				0.248974
				0.252087
				0.251186
				0.251498
				0.245216
				0.250245
				0.245385
				0.248969
				0.252363
				0.249687
				0.250321
				0.250082
				0.252096
				0.251783
				0.25017
				0.251848
				0.252318
				0.242117
				0.240344
				0.251153
				0.249878
				0.248438
				0.250671
				0.251029
				0.251459
				0.250812
				0.249138
				0.249424
				0.252311
				0.252003
				0.249063
				0.243079
				0.251214
				0.249636
				0.251032
				0.251677
				0.24982
				0.252151
				0.251088
				0.248111
				0.249784
				0.245279
				0.251582
				0.250867
				0.251053
				0.250046
				0.246794
				0.251946
				0.249943
				0.249299
				0.24321
				0.250561
				0.249731
				0.251842
				0.251337
				0.251793
				0.249863
				0.249988
				0.251419
				0.251835
				0.250861
				0.248655
				0.249788
				0.250928
				0.251073
				0.250486
				0.24936
				0.251912
				0.251545
				0.250527
				0.250979
				0.250613
				0.249057
				0.245163
				0.24791
				0.251298
				0.251744
				0.249646
				0.250848
				0.245512
				0.250221
				0.25125
				0.249902
				0.251205
				0.250651
				0.250747
				0.250028
				0.25022
				0.251498
				0.24792
				0.249279
				0.250646
				0.249436
				0.244979
				0.249683
				0.251008
				0.251567
				0.251094
				0.24985
				0.251496
				0.25
				0.249059
				0.250658
				0.25083
				0.250202
				0.250795
				0.250305
				0.25158
				0.251232
				0.250758
				0.247392
				0.250793
				0.249032
				0.250463
				0.246846
				0.251016
				0.251417
				0.249602
				0.24617
				0.250677
				0.248805
				0.25046
				0.249937
				0.251171
				0.250924
				0.250484
				0.250455
				0.250531
				0.251243
				0.248487
				0.249344
				0.250681
				0.251162
				0.249677
				0.249656
				0.250766
				0.25085
				0.251342
				0.246572
				0.251185
				0.249817
				0.250511
				0.250123
				0.249226
				0.25043
				0.247381
				0.250596
				0.250168
				0.251307
				0.250958
				0.250795
				0.250669
				0.24871
				0.24935
				0.250386
				0.247796
				0.250794
				0.251154
				0.24709
				0.249632
				0.250549
				0.250555
				0.251058
				0.249843
				0.250567
				0.250714
				0.250383
				0.250387
				0.250951
				0.248717
				0.249932
				0.249302
				0.249642
				0.250662
				0.250614
				0.247814
				0.25059
				0.251144
				0.250967
				0.24979
				0.250415
				0.248032
				0.249367
				0.250542
				0.250457
				0.250782
				0.251081
				0.250108
				0.250768
				0.25057
				0.249586
				0.250224
				0.250625
				0.250936
				0.247856
				0.249645
				0.249018
				0.25046
				0.250606
				0.250941
				0.249693
				0.250556
				0.249867
				0.250295
				0.250298
				0.250807
				0.248705
				0.249131
				0.250568
				0.250744
				0.249371
				0.250519
				0.25097
				0.249736
				0.250773
				0.25046
				0.249799
				0.250564
				0.248444
				0.250341
				0.248519
				0.250557
				0.249452
				0.250739
				0.25036
				0.25089
				0.250603
				0.250092
				0.250494
				0.249734
				0.25005
				0.250214
				0.250491
				0.250759
				0.24956
				0.250395
				0.249695
				0.248435
				0.249312
				0.250826
				0.250601
				0.249162
				0.250615
				0.250435
				0.250239
				0.250243
				0.249889
				0.250522
				0.250403
				0.250816
				0.250608
				0.249483
				0.250361
				0.249825
				0.248717
				0.249812
				0.250292
				0.248879
				0.249533
				0.250678
				0.249037
				0.250534
				0.250286
				0.250731
				0.250476
				0.250092
				0.250444
				0.250186
				0.249948
				0.249819
				0.250377
				0.2506
				0.248963
				0.249501
				0.25035
				0.249743
				0.24951
				0.250564
				0.250713
				0.250339
				0.250474
				0.250207
				0.249306
				0.250203
				0.250477
				0.249178
				0.250681
				0.250472
				0.250311
				0.249893
				0.250285
				0.249897
				0.249826
				0.250263
				0.249611
				0.250604
				0.249631
				0.250493
				0.250233
				0.250587
				0.250364
				0.249794
				0.250123
				0.250401
				0.250104
				0.249193
				0.249297
				0.250468
				0.250286
				0.249898
				0.25033
				0.249763
				0.250512
				0.24952
				0.249655
				0.250603
				0.250259
				0.25034
				0.250186
				0.250169
				0.249534
				0.249908
				0.250443
				0.249477
				0.250563
				0.250333
				0.250225
				0.250218
				0.24998
				0.250256
				0.249845
				0.250516
				0.249774
				0.249678
				0.249691
				0.250032
				0.250451
				0.250183
				0.250452
				0.250252
				0.250393
				0.250108
				0.249406
				0.249426
				0.25013
				0.250341
				0.2502
				0.249524
				0.250317
				0.250488
				0.249795
				0.249568
				0.250508
				0.249889
				0.250188
				0.250232
				0.250183
				0.250161
				0.249879
				0.24962
				0.249689
				0.25044
				0.250439
				0.250265
				0.250171
				0.250174
				0.250275
				0.250063
				0.250487
				0.249824
				0.249637
				0.249985
				0.249696
				0.249787
				0.249569
				0.250354
				0.250476
				0.250173
				0.250191
				0.250414
				0.25013
				0.250132
				0.250173
				0.249577
				0.249777
				0.249461
				0.250448
			</DataArray>
			<DataArray type="Float64" Name="mach-number" Format="ascii">
				0.59375
				0.846636
				0.851568
				0.849202
				0.848653
				0.68827
				0.72188
				0.742417
				0.760564
				0.776327
				0.789836
				0.801463
				0.810681
				0.817609
				0.821883
				0.823477
				0.846224
				1.10247
				1.27094
				1.26695
				1.26047
				1.25566
				1.25093
				1.24551
				1.2393
				1.23139
				1.22196
				1.21343
				1.20281
				1.19138
				1.1801
				1.15898
				1.13879
				1.12411
				1.10648
				1.08369
				1.06077
				1.03654
				1.00798
				0.971933
				0.928808
				0.875368
				0.801829
				0.701035
				0.545868
				0.307204
				0.137373
				0.406296
				0.65789
				0.808664
				0.90337
				0.976152
				1.02822
				1.06799
				1.10084
				1.13051
				1.15843
				1.17861
				1.19871
				1.21644
				1.23508
				1.25369
				1.27045
				1.28651
				1.3003
				1.31244
				1.32319
				1.33424
				1.34462
				1.35415
				1.36189
				1.36818
				1.37344
				1.37598
				1.37721
				1.38054
				1.38507
				1.39218
				1.40426
				1.41354
				1.41464
				1.41389
				1.41649
				0.911005
				0.719354
				0.705825
				0.686112
				0.664321
				0.628987
				0.849114
				0.851207
				0.851222
				0.851207
				0.851525
				0.851582
				0.850739
				0.849908
				0.849368
				0.849245
				0.849229
				0.849219
				0.849144
				0.849086
				0.848964
				0.84877
				0.848582
				0.848526
				0.849084
				0.84939
				0.849437
				0.849305
				0.84971
				0.849391
				0.264444
				0.282425
				0.439703
				0.426196
				0.356969
				0.565277
				0.603877
				0.720209
				0.403376
				0.406674
				0.53836
				0.627311
				0.516261
				0.72276
				0.829989
				0.496282
				0.445987
				0.444282
				0.627352
				0.714737
				0.814229
				0.810043
				0.912048
				0.720521
				0.491401
				0.488498
				0.60312
				0.875877
				0.976522
				0.889863
				0.567377
				0.708457
				0.797437
				0.64779
				0.500116
				0.92758
				1.02257
				0.512202
				0.547948
				1.06018
				0.515921
				1.00448
				0.970176
				0.796358
				0.722592
				0.953197
				0.860275
				1.09348
				1.03163
				0.551916
				0.549371
				0.649526
				0.999991
				1.12376
				0.91238
				0.603182
				0.553197
				0.86892
				0.607662
				0.790317
				1.05585
				0.713918
				0.668778
				0.550129
				0.606498
				1.14863
				1.04086
				1.07976
				0.956156
				0.56618
				0.593527
				1.17039
				0.790705
				1.10068
				0.570668
				0.729886
				1.07919
				0.931635
				0.98836
				0.848617
				0.646768
				1.19
				1.11782
				0.598252
				0.658373
				0.651724
				1.20994
				1.1042
				1.01574
				0.596757
				1.13644
				0.639116
				0.980728
				0.899917
				0.857276
				1.22908
				0.67062
				0.604703
				0.631535
				0.59018
				0.788712
				1.13217
				1.15742
				1.04251
				0.723307
				0.598579
				0.593877
				1.24777
				0.688435
				0.669985
				1.17401
				0.703973
				0.654134
				1.03106
				0.942066
				1.26488
				1.15241
				1.06547
				1.1866
				0.610627
				0.627343
				1.28061
				0.791092
				0.62262
				0.693771
				1.198
				1.17547
				1.05488
				0.738506
				0.681703
				1.2944
				0.920488
				0.970373
				1.08598
				0.842193
				0.614198
				1.2084
				1.30685
				0.731419
				1.19522
				1.21799
				0.636755
				1.10775
				1.31861
				0.641464
				0.689381
				1.0888
				1.22703
				1.00018
				1.32987
				0.62633
				1.21515
				1.23472
				0.986028
				1.12838
				1.34037
				0.660612
				0.634222
				0.664981
				0.892475
				0.649655
				1.24124
				0.852091
				0.717455
				1.34956
				0.624935
				0.793017
				1.23363
				1.10876
				1.2469
				1.35732
				0.632205
				1.02936
				1.14356
				0.700132
				1.25229
				0.696746
				0.751166
				1.36364
				1.25838
				1.25122
				0.737795
				1.36814
				0.686847
				1.26465
				1.37107
				1.162
				0.635723
				0.701629
				0.920114
				1.24463
				1.13934
				1.37424
				0.665802
				0.951339
				1.37846
				1.26681
				1.04881
				0.821671
				1.38481
				0.82223
				1.17453
				1.39427
				0.762832
				0.818712
				1.40324
				0.813296
				1.40819
				0.648389
				0.805128
				1.40994
				0.794724
				1.41126
				1.28177
				0.767841
				1.15761
				0.661118
				0.78218
				1.18624
				0.79463
				1.04224
				1.15204
				1.07664
				0.747863
				0.952625
				1.29559
				0.913892
				0.852324
				1.19753
				0.653534
				0.709503
				0.717641
				1.30817
				1.18371
				1.20755
				0.64956
				0.676341
				1.10094
				0.699966
				1.31957
				1.21651
				0.655061
				0.990689
				1.33012
				0.666435
				1.19899
				0.677692
				1.2251
				1.11139
				0.652395
				1.33937
				1.23215
				1.34762
				1.22191
				1.23901
				0.85027
				0.667442
				1.09516
				0.664521
				0.656605
				1.35353
				0.971512
				1.13169
				1.24605
				1.00808
				0.798133
				1.35902
				0.690096
				1.25215
				0.740224
				1.36496
				1.23524
				1.2562
				1.36998
				0.720968
				1.14664
				1.10858
				1.37662
				0.902398
				0.867888
				1.38543
				0.748741
				0.82015
				1.39002
				1.2556
				0.816582
				1.39327
				0.725947
				1.04117
				0.814423
				1.39928
				0.807852
				1.40524
				0.715715
				1.16488
				0.71396
				0.798167
				0.70408
				0.910977
				1.39667
				0.787469
				0.774232
				0.682282
				0.668012
				0.71673
				1.26871
				0.758378
				0.679117
				0.691304
				1.17421
				1.14418
				1.28702
				1.06964
				0.803999
				0.951424
				1.18875
				0.905102
				1.02012
				1.29656
				0.761487
				0.671491
				0.847357
				1.19599
				1.31104
				1.20817
				0.726024
				0.729771
				0.678959
				1.31831
				0.675678
				0.681672
				1.18594
				1.21475
				1.33051
				1.10245
				1.22518
				0.689093
				1.33519
				0.702711
				0.723494
				0.681447
				0.681624
				1.23193
				1.34468
				0.712413
				0.69656
				1.24105
				0.684773
				1.35143
				1.24468
				1.00266
				1.36116
				0.692495
				0.941226
				0.865373
				1.21742
				1.36951
				1.22367
				1.07452
				0.989019
				1.37859
				0.830832
				1.13683
				0.815748
				1.37902
				0.69771
				0.814644
				1.38107
				0.815635
				1.38443
				0.813547
				0.78057
				1.39336
				0.803793
				1.3985
				0.884733
				0.793753
				1.15235
				0.780658
				0.767949
				0.714411
				0.738496
				0.765796
				1.25747
				0.690004
				1.1654
				0.735489
				0.753273
				0.700431
				0.734423
				0.736003
				0.698581
				0.705569
				1.12238
				0.716952
				1.28486
				1.04747
				1.18814
				0.992024
				0.812197
				0.933803
				0.773375
				0.701658
				1.30633
				1.20886
				1.3268
				0.746463
				1.16539
				0.708477
				0.915407
				1.22633
				0.703555
				1.08626
				0.741876
				1.34943
				0.703436
				1.14107
				0.711354
				0.709242
				0.714473
				1.36341
				0.865016
				0.880692
				0.700482
				0.725793
				0.745116
				0.721661
				1.37032
				0.819321
				0.730574
				1.2038
				0.723335
				1.38091
				0.811841
				0.716292
				0.92359
				1.27604
				0.77852
				0.859184
				1.12075
				1.04782
				0.982691
				0.814321
				0.712403
				0.704653
				0.717188
				1.23669
				1.15014
				0.756606
				0.781537
				0.753453
				0.718631
				0.749915
				1.26395
				1.0965
				1.17542
				0.748197
				0.724669
				0.962159
				0.797164
				1.02729
				0.727913
				0.739359
				1.2898
				0.827858
				0.911565
				1.19722
				0.766842
				0.790424
				1.31687
				0.720088
				1.20922
				0.734692
				0.725256
				0.887559
				1.14123
				0.73241
				1.33582
				1.00326
				1.06619
				0.762111
				0.727091
				1.3488
				0.729193
				0.844884
				0.83703
				1.36168
				0.725042
				0.824355
				0.865732
				1.31933
				0.731057
				0.760802
				1.17876
				0.763963
				0.811214
				0.790131
				0.745854
				1.101
				0.743315
				0.735887
				1.01742
				0.964566
				1.2112
				0.725645
				0.720672
				0.72268
				1.13312
				0.742036
				0.765843
				0.799453
				1.24342
				0.771942
				0.850844
				1.16012
				0.761292
				0.737296
				0.772555
				1.07273
				0.929951
				0.807897
				1.27527
				1.00824
				1.17859
				0.746252
				0.900706
				0.758671
				0.747545
				1.29737
				0.743978
				1.10974
				0.78153
				1.31569
				0.902054
				1.11685
				1.3349
				0.836034
				0.752928
				1.34708
				1.04645
				0.744491
				1.06753
				0.745122
				0.826415
				0.803667
				0.736472
				0.776626
				0.752326
				0.751556
				0.743489
				1.15364
				0.766442
				1.08416
				0.849355
				0.781062
				0.997359
				0.754087
				0.762202
				0.764865
				0.947943
				1.19142
				1.11818
				0.758084
				0.742624
				0.743562
				0.811459
				0.883916
				0.779854
				1.2283
				0.759728
				1.14169
				0.779929
				0.791874
				0.745155
				1.25247
				1.05163
				0.784989
				1.1405
				0.75607
				0.774313
				0.989173
				1.27495
				0.831214
				0.97528
				1.29866
				0.885738
				0.764557
				0.930243
				0.856544
				0.797815
				0.775635
				0.765204
				1.31835
				0.757137
				1.2869
				1.0914
				0.845545
				0.905161
				0.822039
				0.755209
				0.762386
				1.02892
				0.770402
				0.761668
				1.13526
				1.07173
				0.789874
				0.769203
				0.762823
				0.761393
				0.796603
				0.985543
				1.17615
				0.772055
				1.10187
				0.778392
				0.927939
				0.770022
				0.783473
				0.873413
				0.792712
				1.19654
				1.11148
				0.763931
				0.757983
				0.827049
				0.773282
				0.86382
				1.22887
				0.813046
				1.067
				0.775016
				0.776472
				1.03095
				0.798618
				1.25129
				0.922478
				0.974313
				1.28184
				0.81633
				0.773755
				0.796876
				1.29506
				0.844656
				1.10921
				0.79037
				0.923021
				0.780221
				0.774746
				0.792302
				0.790925
				1.08107
				0.781434
				1.02395
				0.778362
				0.837016
				0.785183
				0.76392
				1.12631
				1.05556
				0.787073
				0.783944
				0.802208
				0.966068
				0.920408
				0.848442
				0.778641
				0.83199
				0.812123
				1.18267
				0.792234
				0.800629
				1.02297
				0.803441
				0.897045
				0.784942
				0.774414
				0.774261
				1.23793
				1.0295
				0.896581
				0.787647
				0.803631
				0.816512
				0.835408
				0.791721
				0.777455
				0.97948
				1.11652
				0.773196
				0.789902
				0.788573
				0.871797
				0.802922
				0.807301
				0.78894
				0.793333
				0.802788
				0.792341
				0.794231
				0.804539
				0.797592
				1.09845
				1.01587
				0.940854
				0.872811
				0.854667
				0.778951
				0.798488
				0.835123
				0.821959
				0.853329
				0.796058
				0.909366
				0.811703
				1.16111
				0.789624
				0.798536
				0.955715
				0.812302
				0.803766
				1.20949
				0.797238
				0.864443
				0.790044
				0.831253
				0.795288
				0.819485