<VTKFile type="UnstructuredGrid" version="0.1" byte_order="LittleEndian">
<UnstructuredGrid>
	<Piece NumberOfPoints="1485" NumberOfCells="2857">
		<PointData Scalars="density" Vectors="velocity">
			<DataArray type="Float64" Name="density" Format="ascii">
				0.284602
				0.249378
				0.249638
				0.250168
				0.250581
				0.274491
				0.26886
				0.265226
				0.261926
				0.259015
				0.256512
				0.254336
				0.252764
				0.250976
				0.251221
				0.248056
				0.256112
				0.217259
				0.173825
				0.173842
				0.175051
				0.17592
				0.176897
				0.177848
				0.17895
				0.180232
				0.181754
				0.183358
				0.185325
				0.187278
				0.189278
				0.192347
				0.195554
				0.198676
				0.201979
				0.206285
				0.210474
				0.214447
				0.219157
				0.225506
				0.233338
				0.242941
				0.256045
				0.273465
				0.298047
				0.329105
				0.342719
				0.314627
				0.274617
				0.249795
				0.233575
				0.221278
				0.212693
				0.205472
				0.199856
				0.194899
				0.190507
				0.186976
				0.183431
				0.180632
				0.177622
				0.174752
				0.172163
				0.169684
				0.167493
				0.165371
				0.163494
				0.161705
				0.160134
				0.15874
				0.157582
				0.156692
				0.156046
				0.155443
				0.154832
				0.154146
				0.153488
				0.152413
				0.150665
				0.149309
				0.149047
				0.14912
				0.147204
				0.174487
				0.258709
				0.260729
				0.267286
				0.268926
				0.274702
				0.249594
				0.249822
				0.249728
				0.249663
				0.249557
				0.249515
				0.249877
				0.250069
				0.250172
				0.25018
				0.250172
				0.250166
				0.250182
				0.250201
				0.25024
				0.250309
				0.250411
				0.250531
				0.250596
				0.250547
				0.250402
				0.250251
				0.250183
				0.249918
				0.335508
				0.333107
				0.316053
				0.317337
				0.32784
				0.295453
				0.291835
				0.26979
				0.322464
				0.322272
				0.302931
				0.289124
				0.307153
				0.271822
				0.251484
				0.309693
				0.31715
				0.317414
				0.289406
				0.274817
				0.256904
				0.25614
				0.235987
				0.273296
				0.310899
				0.311231
				0.292953
				0.24406
				0.224443
				0.242396
				0.299277
				0.275192
				0.259317
				0.286009
				0.309651
				0.23445
				0.215376
				0.307813
				0.302368
				0.207957
				0.307425
				0.220562
				0.22659
				0.259539
				0.273009
				0.230386
				0.247626
				0.201901
				0.215957
				0.301769
				0.302377
				0.285054
				0.220722
				0.196742
				0.237853
				0.293252
				0.301711
				0.24603
				0.292798
				0.260707
				0.211598
				0.27431
				0.282595
				0.302049
				0.277257
				0.192444
				0.212705
				0.207036
				0.22992
				0.299549
				0.295141
				0.188586
				0.26061
				0.203041
				0.299054
				0.271908
				0.205742
				0.234157
				0.224298
				0.249798
				0.271774
				0.185219
				0.199582
				0.294469
				0.279434
				0.285073
				0.181994
				0.201031
				0.219344
				0.294735
				0.19622
				0.287801
				0.224401
				0.240258
				0.248033
				0.178921
				0.268756
				0.278363
				0.280363
				0.295744
				0.26116
				0.195989
				0.192947
				0.214279
				0.27259
				0.294568
				0.295098
				0.175994
				0.279433
				0.277381
				0.190328
				0.27212
				0.27297
				0.215317
				0.232838
				0.173305
				0.192418
				0.209927
				0.188152
				0.292474
				0.289468
				0.170805
				0.260418
				0.272694
				0.262897
				0.186103
				0.188297
				0.210783
				0.27048
				0.273947
				0.168502
				0.235936
				0.227799
				0.205638
				0.25112
				0.29197
				0.184193
				0.16637
				0.267356
				0.185019
				0.18252
				0.288197
				0.201776
				0.164404
				0.270442
				0.278553
				0.204344
				0.181013
				0.222194
				0.162616
				0.289681
				0.181691
				0.179725
				0.223482
				0.198035
				0.161027
				0.283785
				0.288444
				0.283458
				0.241791
				0.26879
				0.178589
				0.248916
				0.267534
				0.159653
				0.289885
				0.260434
				0.178685
				0.200969
				0.177539
				0.158537
				0.288824
				0.216724
				0.195384
				0.273277
				0.176523
				0.273789
				0.263846
				0.157653
				0.175425
				0.175789
				0.270202
				0.156903
				0.270453
				0.174164
				0.1562
				0.192357
				0.288324
				0.277109
				0.237111
				0.187225
				0.195532
				0.155479
				0.268213
				0.247308
				0.154726
				0.173164
				0.212667
				0.2511
				0.153717
				0.250887
				0.190097
				0.152324
				0.222305
				0.251183
				0.151042
				0.252467
				0.150317
				0.286191
				0.253996
				0.15002
				0.255875
				0.149799
				0.170697
				0.260869
				0.192401
				0.283826
				0.258189
				0.187955
				0.259876
				0.212986
				0.150555
				0.207414
				0.268751
				0.23133
				0.16846
				0.237058
				0.249179
				0.186006
				0.268802
				0.270948
				0.270041
				0.166378
				0.187856
				0.184203
				0.285899
				0.281419
				0.203469
				0.277019
				0.164564
				0.18269
				0.285027
				0.224202
				0.162909
				0.267
				0.185281
				0.265705
				0.181244
				0.201256
				0.285398
				0.161559
				0.179988
				0.160349
				0.181278
				0.178798
				0.249274
				0.282771
				0.20359
				0.283422
				0.28474
				0.159286
				0.226078
				0.197563
				0.177589
				0.220525
				0.25941
				0.158317
				0.266042
				0.17682
				0.266127
				0.157447
				0.179035
				0.173166
				0.15656
				0.2699
				0.19522
				0.220873
				0.155372
				0.240218
				0.257212
				0.154028
				0.268249
				0.248862
				0.153348
				0.175491
				0.252615
				0.152878
				0.255137
				0.213996
				0.252374
				0.151977
				0.253978
				0.150905
				0.274452
				0.192073
				0.267972
				0.255584
				0.259916
				0.176443
				0.150191
				0.257587
				0.260042
				0.264404
				0.28281
				0.270695
				0.173607
				0.262918
				0.280958
				0.278638
				0.190414
				0.195106
				0.170568
				0.209185
				0.258063
				0.231223
				0.187816
				0.238658
				0.217003
				0.169117
				0.266181
				0.267565
				0.250057
				0.186538
				0.166582
				0.184333
				0.268849
				0.267951
				0.26815
				0.165574
				0.281303
				0.280418
				0.187753
				0.183215
				0.163487
				0.203259
				0.181343
				0.265546
				0.162586
				0.276811
				0.272865
				0.280386
				0.280459
				0.18034
				0.160785
				0.264735
				0.277797
				0.178915
				0.27989
				0.159969
				0.177665
				0.221348
				0.158479
				0.278629
				0.2317
				0.246194
				0.189868
				0.157265
				0.181346
				0.207558
				0.237056
				0.15574
				0.253664
				0.197236
				0.256097
				0.15575
				0.262432
				0.254341
				0.155135
				0.2521
				0.154654
				0.252531
				0.22221
				0.153146
				0.255113
				0.153245
				0.243501
				0.257181
				0.148812
				0.259158
				0.261521
				0.26895
				0.267104
				0.265187
				0.175913
				0.264259
				0.192297
				0.270925
				0.264295
				0.26287
				0.265969
				0.267908
				0.277392
				0.276367
				0.19892
				0.274156
				0.171501
				0.213246
				0.188221
				0.222453
				0.256506
				0.234379
				0.263982
				0.276783
				0.167716
				0.184613
				0.164218
				0.265459
				0.19126
				0.275736
				0.236647
				0.181679
				0.267031
				0.206215
				0.266812
				0.160795
				0.276555
				0.199078
				0.264238
				0.275642
				0.261159
				0.158678
				0.247009
				0.248945
				0.265831
				0.272704
				0.269059
				0.273389
				0.157387
				0.252374
				0.263101
				0.184729
				0.266395
				0.156087
				0.254441
				0.27444
				0.173882
				0.150967
				0.2603
				0.247447
				0.200041
				0.212558
				0.225162
				0.256308
				0.260302
				0.270716
				0.274092
				0.179323
				0.194849
				0.264704
				0.262394
				0.267668
				0.261938
				0.266081
				0.174616
				0.203496
				0.190366
				0.26343
				0.272943
				0.227979
				0.257395
				0.216899
				0.272301
				0.27018
				0.170192
				0.253643
				0.238419
				0.186881
				0.26303
				0.260817
				0.165873
				0.273492
				0.185668
				0.260086
				0.272635
				0.241965
				0.195617
				0.271507
				0.16294
				0.225946
				0.209765
				0.263123
				0.272525
				0.160923
				0.27218
				0.250518
				0.255633
				0.159012
				0.26363
				0.251202
				0.215636
				0.156115
				0.261888
				0.264585
				0.189129
				0.265699
				0.256381
				0.259194
				0.26905
				0.203415
				0.269523
				0.270932
				0.218005
				0.228598
				0.18336
				0.259349
				0.267753
				0.262508
				0.197708
				0.269746
				0.263913
				0.259084
				0.177884
				0.262492
				0.249183
				0.193307
				0.261423
				0.260334
				0.264214
				0.208014
				0.233959
				0.257598
				0.172665
				0.22033
				0.189949
				0.26906
				0.240409
				0.266738
				0.268797
				0.169006
				0.269338
				0.203504
				0.261212
				0.166021
				0.246589
				0.200206
				0.163098
				0.252839
				0.267813
				0.160291
				0.213309
				0.269401
				0.176516
				0.269237
				0.253067
				0.257625
				0.257412
				0.261016
				0.258825
				0.259228
				0.260186
				0.193347
				0.250342
				0.206336
				0.249836
				0.262651
				0.221666
				0.267673
				0.266138
				0.265693
				0.231677
				0.18667
				0.200693
				0.266816
				0.257887
				0.261726
				0.256961
				0.242857
				0.261762
				0.180316
				0.266605
				0.196557
				0.261762
				0.260827
				0.259901
				0.176136
				0.212242
				0.260601
				0.196687
				0.258142
				0.258768
				0.223818
				0.172236
				0.253519
				0.229971
				0.168538
				0.243174
				0.265712
				0.234006
				0.251364
				0.258819
				0.263725
				0.265711
				0.165514
				0.267036
				0.160216
				0.204535
				0.250397
				0.21589
				0.254104
				0.256528
				0.266165
				0.216379
				0.264666
				0.26617
				0.196
				0.208763
				0.259265
				0.257036
				0.258048
				0.265077
				0.259865
				0.223996
				0.18908
				0.264431
				0.204119
				0.26321
				0.235427
				0.264784
				0.262392
				0.244968
				0.259826
				0.185542
				0.202707
				0.259082
				0.256376
				0.254124
				0.256335
				0.247228
				0.179845
				0.256953
				0.2118
				0.26382
				0.263593
				0.216047
				0.25895
				0.176374
				0.239302
				0.226852
				0.171398
				0.255222
				0.256113
				0.258812
				0.167705
				0.251962
				0.180956
				0.26021
				0.23529
				0.262887
				0.263871
				0.257604
				0.260928
				0.205994
				0.262759
				0.217407
				0.263246
				0.238992
				0.261969
				0.254824
				0.198111
				0.212359
				0.261609
				0.255036
				0.257587
				0.227416
				0.236643
				0.25003
				0.256541
				0.253406
				0.256991
				0.188635
				0.260674
				0.259254
				0.218766
				0.258152
				0.240443
				0.26208
				0.255338
				0.254718
				0.179146
				0.21576
				0.243054
				0.261477
				0.258486
				0.255648
				0.253286
				0.255821
				0.254308
				0.225886
				0.185396
				0.259285
				0.261086
				0.254518
				0.245654
				0.258439
				0.257253
				0.261269
				0.260432
				0.25873
				0.260694
				0.260412
				0.256294
				0.259652
				0.203442
				0.219876
				0.232196
				0.245425
				0.237021
				0.253278
				0.259526
				0.252604
				0.255275
				0.249391
				0.253805
				0.238766
				0.256275
				0.192755
				0.255337
				0.259505
				0.231239
				0.256738
				0.258522
				0.181615
				0.259825
				0.249074
				0.253633
				0.253481
				0.254157
				0.255587
				0.256248
				0.253329
				0.257634
				0.25935
				0.219052
				0.259063
				0.229061
				0.197055
				0.256877
				0.258086
				0.253216
				0.2591
				0.255917
				0.258535
				0.256784
				0.24207
				0.25868
				0.252455
				0.258404
				0.254966
				0.257795
				0.20712
				0.257887
				0.228467
				0.246128
				0.250314
				0.253024
				0.23099
				0.197227
				0.253026
				0.252164
				0.241283
				0.251167
				0.257725
				0.253605
				0.238019
				0.25386
				0.254971
				0.177729
				0.255432
				0.257951
				0.253758
				0.25797
				0.256706
				0.253576
				0.252841
				0.255384
				0.251979
				0.254107
				0.257501
				0.256165
				0.22049
				0.257308
				0.233753
				0.218763
				0.252156
				0.257354
				0.246038
				0.249219
				0.257083
				0.254697
				0.239159
				0.256579
				0.257027
				0.255218
				0.209373
				0.236579
				0.241992
				0.251103
				0.256173
				0.256831
				0.253966
				0.246837
				0.256249
				0.192059
				0.251586
				0.231821
				0.250762
				0.251752
				0.253469
				0.251028
				0.252744
				0.256049
				0.252129
				0.253624
				0.254243
				0.253833
				0.256443
				0.250943
				0.25519
				0.254389
				0.251132
				0.240972
				0.222054
				0.256162
				0.253047
				0.255628
				0.238451
				0.252685
				0.255143
				0.222056
				0.247005
				0.256038
				0.251669
				0.255299
				0.208567
				0.242677
				0.255743
				0.246789
				0.250687
				0.253602
				0.253864
				0.249386
				0.25479
				0.250206
				0.255513
				0.253067
				0.243551
				0.24983
				0.251925
				0.234116
				0.254813
				0.249728
				0.251418
				0.251451
				0.252699
				0.24344
				0.253215
				0.25467
				0.255201
				0.251733
				0.255211
				0.253305
				0.25295
				0.2535
				0.253903
				0.249956
				0.223003
				0.250744
				0.223839
				0.24246
				0.255023
				0.243846
				0.248861
				0.251862
				0.254243
				0.254066
				0.255069
				0.246681
				0.251244
				0.254131
				0.254635
				0.252818
				0.252738
				0.250516
				0.2536
				0.254452
				0.249687
				0.252134
				0.236851
				0.248895
				0.252015
				0.245609
				0.250631
				0.250175
				0.254206
				0.252557
				0.248703
				0.241679
				0.251863
				0.250647
				0.253632
				0.253648
				0.252588
				0.254212
				0.224303
				0.252886
				0.252203
				0.252867
				0.245688
				0.250504
				0.254032
				0.244066
				0.24917
				0.2301
				0.249097
				0.250999
				0.24908
				0.25326
				0.25317
				0.250662
				0.253165
				0.232084
				0.253723
				0.25214
				0.251359
				0.251878
				0.252667
				0.251288
				0.248856
				0.253606
				0.23768
				0.24979
				0.248132
				0.247114
				0.249525
				0.251653
				0.249526
				0.253348
				0.252142
				0.250143
				0.252821
				0.251504
				0.232903
				0.24837
				0.241831
				0.252015
				0.253405
				0.247981
				0.252756
				0.251656
				0.252064
				0.250339
				0.248875
				0.244687
				0.253106
				0.249458
				0.250409
				0.250192
				0.252658
				0.252369
				0.250258
				0.25242
				0.252923
				0.251603
				0.251379
				0.248324
				0.25083
				0.251231
				0.236805
				0.25196
				0.252936
				0.249175
				0.248442
				0.24089
				0.238727
				0.249242
				0.252579
				0.249576
				0.251299
				0.251703
				0.251275
				0.252176
				0.249922
				0.25152
				0.2482
				0.252736
				0.249355
				0.252083
				0.251217
				0.251457
				0.245638
				0.250222
				0.245111
				0.248788
				0.252399
				0.24989
				0.250604
				0.24997
				0.252187
				0.251769
				0.250023
				0.251853
				0.252368
				0.241381
				0.239594
				0.251216
				0.250128
				0.248408
				0.25083
				0.251228
				0.251433
				0.250742
				0.24941
				0.249264
				0.252401
				0.252026
				0.248897
				0.242814
				0.251343
				0.249742
				0.251179
				0.25169
				0.249735
				0.252216
				0.251175
				0.247918
				0.250088
				0.244949
				0.251578
				0.250898
				0.251011
				0.250049
				0.247006
				0.251984
				0.250136
				0.249228
				0.242659
				0.250773
				0.249582
				0.251873
				0.251323
				0.251904
				0.249975
				0.249899
				0.251423
				0.25188
				0.250919
				0.248605
				0.250037
				0.251089
				0.251049
				0.250418
				0.249292
				0.251992
				0.251564
				0.25064
				0.251087
				0.250779
				0.248784
				0.245042
				0.247725
				0.251308
				0.251801
				0.24961
				0.250926
				0.245162
				0.250453
				0.251377
				0.249985
				0.251201
				0.250667
				0.250709
				0.249987
				0.250396
				0.251526
				0.247943
				0.249214
				0.250817
				0.249326
				0.244658
				0.249583
				0.250995
				0.251663
				0.251096
				0.249816
				0.251535
				0.250149
				0.248999
				0.250711
				0.250964
				0.250403
				0.250772
				0.250251
				0.251649
				0.251248
				0.250899
				0.247196
				0.250893
				0.24883
				0.25051
				0.246802
				0.251024
				0.251466
				0.249575
				0.245871
				0.250746
				0.248663
				0.250633
				0.249979
				0.25128
				0.250919
				0.250494
				0.250609
				0.250496
				0.25127
				0.248407
				0.249256
				0.250806
				0.251182
				0.249583
				0.249619
				0.250754
				0.250851
				0.251424
				0.246391
				0.251218
				0.249826
				0.250557
				0.250264
				0.24917
				0.250586
				0.24718
				0.250576
				0.250117
				0.251366
				0.250971
				0.250918
				0.250755
				0.248578
				0.249212
				0.250434
				0.24772
				0.250801
				0.251195
				0.246876
				0.249606
				0.250606
				0.250691
				0.251153
				0.249892
				0.250697
				0.25071
				0.250416
				0.250357
				0.25097
				0.248654
				0.249941
				0.249177
				0.249566
				0.250663
				0.250715
				0.247702
				0.25058
				0.251214
				0.250995
				0.249795
				0.250464
				0.247872
				0.249325
				0.250663
				0.25044
				0.250887
				0.251131
				0.250065
				0.250779
				0.250639
				0.249559
				0.250253
				0.25063
				0.25097
				0.247697
				0.249619
				0.248916
				0.25051
				0.250715
				0.251022
				0.249712
				0.250552
				0.249899
				0.250312
				0.250272
				0.250825
				0.248643
				0.249074
				0.250664
				0.250757
				0.2493
				0.25052
				0.251029
				0.249675
				0.250795
				0.250452
				0.249787
				0.250642
				0.248349
				0.250374
				0.248392
				0.250653
				0.249406
				0.250828
				0.250346
				0.250932
				0.250611
				0.250056
				0.250553
				0.249729
				0.250115
				0.250218
				0.250495
				0.250786
				0.249555
				0.250435
				0.249667
				0.24832
				0.249233
				0.250894
				0.250689
				0.249095
				0.250628
				0.250432
				0.250256
				0.250222
				0.249918
				0.250593
				0.250404
				0.250864
				0.250625
				0.249425
				0.250354
				0.249777
				0.248611
				0.249796
				0.25032
				0.248804
				0.249485
				0.250751
				0.248946
				0.25061
				0.250275
				0.250765
				0.250483
				0.250064
				0.250494
				0.250208
				0.249981
				0.24984
				0.25038
				0.250621
				0.248885
				0.249474
				0.250384
				0.249713
				0.249447
				0.250635
				0.250768
				0.250337
				0.250483
				0.250225
				0.249251
				0.250187
				0.250534
				0.249101
				0.25072
				0.250484
				0.250312
				0.249903
				0.250281
				0.24986
				0.249805
				0.250289
				0.249592
				0.250662
				0.249594
				0.250552
				0.250225
				0.250613
				0.250369
				0.249809
				0.25014
				0.250442
				0.250083
				0.249125
				0.249242
				0.250484
				0.250288
				0.249931
				0.250361
				0.249736
				0.250567
				0.249501
				0.249607
				0.250646
				0.250258
				0.250347
				0.250202
				0.250159
				0.249492
				0.249916
				0.25049
				0.249423
				0.250592
				0.250342
				0.250226
				0.250215
				0.249953
				0.250281
				0.249829
				0.25056
				0.249779
				0.249646
				0.249694
				0.250054
				0.250497
				0.250178
				0.250471
				0.250256
				0.25043
				0.250094
				0.249354
				0.249373
				0.250143
				0.250351
				0.250201
				0.249481
				0.250345
				0.250529
				0.249776
				0.249554
				0.25054
				0.24986
				0.250188
				0.250236
				0.2502
				0.250155
				0.249875
				0.249582
				0.249649
				0.25048
				0.250458
				0.25027
				0.250172
				0.250173
				0.2503
				0.250045
				0.250519
				0.249802
				0.249638
				0.250001
				0.249665
				0.249785
				0.249524
				0.250366
				0.250517
				0.250171
				0.250193
				0.25045
				0.25012
				0.250148
				0.250174
				0.249534
				0.249756
				0.249445
				0.250469
			</DataArray>
			<DataArray type="Float64" Name="mach-number" Format="ascii">
				0.585745
				0.846533
				0.851714
				0.849198
				0.848526
				0.676387
				0.714205
				0.735068
				0.753764
				0.769844
				0.7838
				0.795674
				0.804186
				0.813651
				0.812638
				0.827647
				0.783234
				0.962802
				1.27728
				1.27151
				1.2631
				1.25782
				1.25203
				1.24641
				1.23991
				1.23236
				1.22341
				1.21402
				1.20252
				1.19117
				1.17954
				1.16186
				1.14347
				1.12572
				1.10701
				1.0829
				1.05956
				1.03747
				1.01128
				0.975893
				0.932321
				0.878587
				0.804891
				0.7041
				0.549155
				0.309091
				0.142596
				0.41955
				0.66988
				0.814986
				0.911479
				0.984004
				1.03487
				1.07723
				1.11033
				1.13967
				1.16563
				1.18665
				1.20777
				1.22461
				1.24271
				1.26011
				1.27587
				1.2911
				1.30462
				1.31782
				1.32957
				1.34083
				1.35078
				1.35966
				1.36708
				1.37279
				1.37695
				1.38082
				1.38477
				1.38922
				1.39345
				1.40038
				1.41192
				1.42094
				1.4224
				1.41997
				1.42019
				1.17404
				0.699134
				0.710302
				0.674642
				0.664734
				0.626697
				0.849184
				0.851364
				0.851313
				0.851286
				0.851633
				0.851699
				0.850856
				0.849976
				0.849393
				0.849255
				0.849232
				0.849218
				0.849137
				0.849076
				0.848947
				0.848738
				0.848525
				0.848433
				0.848966
				0.849294
				0.849349
				0.849208
				0.849644
				0.849463
				0.266853
				0.28955
				0.440045
				0.432535
				0.359288
				0.573647
				0.60401
				0.726656
				0.405162
				0.405781
				0.542105
				0.632934
				0.514164
				0.723022
				0.830973
				0.49802
				0.446818
				0.444345
				0.62553
				0.715056
				0.812124
				0.81071
				0.916105
				0.719032
				0.49035
				0.489811
				0.606507
				0.877061
				0.97981
				0.890106
				0.566206
				0.710063
				0.796531
				0.646657
				0.500217
				0.929474
				1.02989
				0.512218
				0.549936
				1.07102
				0.516402
				1.00534
				0.972367
				0.796003
				0.721594
				0.954931
				0.860177
				1.10519
				1.0305
				0.551709
				0.550591
				0.654211
				1.00706
				1.13431
				0.91305
				0.606473
				0.553167
				0.869772
				0.607146
				0.789725
				1.0544
				0.716001
				0.66809
				0.55033
				0.608397
				1.15882
				1.0509
				1.07953
				0.956258
				0.56648
				0.595623
				1.18096
				0.790984
				1.10166
				0.571296
				0.728943
				1.08902
				0.933878
				0.986754
				0.848874
				0.647469
				1.20039
				1.12107
				0.597933
				0.650738
				0.654693
				1.21925
				1.11453
				1.01346
				0.598451
				1.14005
				0.638451
				0.986476
				0.900747
				0.858798
				1.23721
				0.660967
				0.606152
				0.630171
				0.590202
				0.788052
				1.14254
				1.15855
				1.04116
				0.725679
				0.598439
				0.594404
				1.25461
				0.687542
				0.667906
				1.17342
				0.697561
				0.651099
				1.03641
				0.941287
				1.27063
				1.16227
				1.06492
				1.18589
				0.61076
				0.629379
				1.28573
				0.792018
				0.60964
				0.689146
				1.19758
				1.18564
				1.06064
				0.737549
				0.679489
				1.29968
				0.92402
				0.968159
				1.08845
				0.842578
				0.615402
				1.20861
				1.31275
				0.725467
				1.20424
				1.21826
				0.63634
				1.10973
				1.32485
				0.62389
				0.692447
				1.09663
				1.22703
				0.998486
				1.33596
				0.626745
				1.22341
				1.23451
				0.991217
				1.13021
				1.34587
				0.662507
				0.636002
				0.664272
				0.893085
				0.627537
				1.24117
				0.854542
				0.67213
				1.35451
				0.625699
				0.792887
				1.24082
				1.11513
				1.2473
				1.36153
				0.632586
				1.02842
				1.14472
				0.698787
				1.25324
				0.694484
				0.746391
				1.36713
				1.25933
				1.2578
				0.739599
				1.37187
				0.683353
				1.2635
				1.37636
				1.16163
				0.636442
				0.701063
				0.918761
				1.16527
				1.14581
				1.38095
				0.650213
				0.820591
				1.38576
				1.27329
				1.05032
				0.818459
				1.39224
				0.81834
				1.17428
				1.40132
				0.862427
				0.81716
				1.4097
				0.810006
				1.41453
				0.648344
				0.80199
				1.41689
				0.791499
				1.42286
				1.28802
				0.763187
				1.16346
				0.662656
				0.778263
				1.18645
				0.795869
				1.04861
				1.4574
				1.07858
				0.747626
				0.94963
				1.30145
				0.918692
				0.853461
				1.19753
				0.625163
				0.708087
				0.714408
				1.31409
				1.18933
				1.20788
				0.651214
				0.676146
				1.10028
				0.70148
				1.32514
				1.21656
				0.654778
				0.988292
				1.33535
				0.646243
				1.2043
				0.641261
				1.22497
				1.11244
				0.652929
				1.34366
				1.23224
				1.35122
				1.22732
				1.23929
				0.852964
				0.668744
				1.10052
				0.664502
				0.656893
				1.35783
				0.977946
				1.13304
				1.24649
				1.00788
				0.798645
				1.36396
				0.67982
				1.25188
				0.738752
				1.36943
				1.24077
				1.28377
				1.37502
				0.720539
				1.14653
				0.958466
				1.38259
				0.902299
				0.799782
				1.39134
				0.749826
				0.835237
				1.39562
				1.26139
				0.815228
				1.39861
				0.664691
				1.04321
				0.817463
				1.40419
				0.809341
				1.41106
				0.715594
				1.16416
				0.713153
				0.79953
				0.667231
				1.12495
				1.40699
				0.787847
				0.773235
				0.663799
				0.668873
				0.716092
				1.27307
				0.757279
				0.67896
				0.692275
				1.1741
				1.14831
				1.29089
				1.06983
				0.805365
				0.95004
				1.18859
				0.910281
				1.02636
				1.30023
				0.761481
				0.65876
				0.849169
				1.19652
				1.31516
				1.20879
				0.725381
				0.730051
				0.682803
				1.32194
				0.676022
				0.68263
				1.19053
				1.21588
				1.33423
				1.1028
				1.22627
				0.692677
				1.34047
				0.702652
				0.724439
				0.682212
				0.681794
				1.23258
				1.35106
				0.70714
				0.69713
				1.24019
				0.684633
				1.35677
				1.24813
				1.00307
				1.36542
				0.692253
				0.947156
				0.868833
				1.168
				1.37388
				1.22795
				1.0781
				0.885612
				1.38296
				0.809204
				1.13675
				0.816025
				1.38343
				0.680529
				0.808814
				1.38666
				0.823164
				1.38994
				0.819496
				0.836381
				1.39986
				0.804675
				1.3959
				0.884514
				0.794066
				1.45666
				0.782147
				0.768557
				0.664448
				0.737987
				0.766668
				1.26022
				0.693507
				1.16493
				0.735437
				0.753322
				0.697421
				0.735993
				0.734534
				0.699734
				0.705563
				1.12622
				0.717533
				1.28683
				1.04766
				1.18841
				0.996825
				0.813832
				0.932862
				0.773304
				0.70241
				1.30996
				1.20917
				1.33156
				0.747114
				1.16956
				0.70885
				0.920978
				1.22498
				0.721641
				1.08642
				0.740917
				1.35307
				0.703685
				1.0971
				0.731076
				0.709099
				0.699808
				1.36644
				0.865359
				0.828679
				0.727806
				0.725836
				0.745777
				0.721916
				1.37439
				0.822744
				0.72842
				1.20718
				0.747594
				1.38096
				0.810293
				0.716416
				1.23352
				1.44831
				0.778113
				0.862886
				1.12076
				1.0503
				0.982301
				0.815381
				0.701881
				0.722384
				0.718136
				1.23885
				1.15003
				0.755955
				0.78227
				0.753183
				0.731793
				0.748677
				1.26691
				1.10002
				1.17567
				0.749153
				0.724958
				0.966888
				0.795834
				1.0273
				0.728097
				0.739728
				1.29374
				0.82999
				0.911298
				1.19656
				0.765203
				0.790798
				1.32044
				0.720528
				1.2086
				0.725896
				0.725958
				0.89268
				1.1443
				0.732499
				1.3388
				0.948022
				1.06636
				0.76266
				0.726825
				1.35174
				0.728932
				0.846214
				0.811292
				1.3657
				0.737154
				0.83238
				0.917791
				1.39642
				0.747993
				0.760043
				1.18129
				0.764373
				0.807117
				0.789433
				0.745669
				1.10142
				0.743443
				0.735878
				1.02033
				0.96414
				1.21477
				0.727067
				0.708314
				0.738
				1.13343
				0.742423
				0.765971
				0.80043
				1.24717
				0.771883
				0.853439
				1.15833
				0.762249
				0.752967
				0.77229
				1.0756
				0.934485
				0.808117
				1.2784
				1.00894
				1.17625
				0.746127
				0.9009
				0.758796
				0.747228
				1.3005
				0.744229
				1.08906
				0.781915
				1.31866
				0.855455
				1.11921
				1.33603
				0.831722
				0.752887
				1.34566
				1.04706
				0.744329
				1.2072
				0.74522
				0.82893
				0.804443
				0.727509
				0.777683
				0.747639
				0.753492
				0.745354
				1.15799
				0.77058
				1.08556
				0.850474
				0.78127
				1.00118
				0.753763
				0.762125
				0.764473
				0.947674
				1.19606
				1.11697
				0.758361
				0.750464
				0.738209
				0.81187
				0.888331
				0.780164
				1.23249
				0.759788
				1.13984
				0.780418
				0.791181
				0.743357
				1.2566
				1.05279
				0.785269
				1.13906
				0.762737
				0.774494
				0.989837
				1.27958
				0.83144
				0.940606
				1.30193
				0.886685
				0.764535
				0.93531
				0.837408
				0.798124
				0.775531
				0.764593
				1.32172
				0.757225
				1.37449
				1.09515
				0.847782
				0.941119
				0.822553
				0.752263
				0.762266
				1.03027
				0.770277
				0.761907
				1.14188
				1.07159
				0.791089
				0.763302
				0.756422
				0.722785
				0.79649
				0.989124
				1.18083
				0.771981
				1.0971
				0.778217
				0.927587
				0.76957
				0.782763
				0.87647
				0.792256
				1.20056
				1.10601
				0.751754
				0.763385
				0.827698
				0.771131
				0.864179
				1.23377
				0.81244
				1.05138
				0.775119
				0.776476
				1.03129
				0.797082
				1.25452
				0.899637
				0.973255
				1.28365
				0.816881
				0.771826
				0.797
				1.30958
				0.8353
				1.19043
				0.789987
				0.928165
				0.780133
				0.77471
				0.793874
				0.790874
				1.08579
				0.780786
				1.02431
				0.777953
				0.837463
				0.784969
				0.764594
				1.12992
				1.05239
				0.78713
				0.772943
				0.803153
				0.970118
				0.920677
				0.84972
				0.765894
				0.831331
				0.812344
				1.18413
				0.792202
				0.799937
				1.01445
				0.802901
				0.900911
				0.784443
				0.771507
				0.775623
				1.24023
				1.03262
				0.88285
				0.78775
				0.801752
				0.817136
				0.832359
				0.791527
				0.775677
				0.978573
				1.17698
				0.752834
				0.790032
				0.778098
				0.872974
				0.802038
				0.807048
				0.788804
				0.793338
				0.802909
				0.792
				0.793587
				0.806145
				0.797649
				1.10109
				1.01177
				0.944509
				0.874415
				0.851852
				0.778417
				0.798434
				0.835679
				0.821276
				0.853216
				0.780132
				0.909801
				0.81213
				1.16137
				0.770181
				0.798567
				0.946571
				0.812378
				0.804026
				1.2205
				0.796775
				0.854412
				0.780765
				0.831415
				0.79541
				0.819756
				0.815548
				0.783784