<VTKFile type="UnstructuredGrid" version="0.1" byte_order="LittleEndian">
<UnstructuredGrid>
	<Piece NumberOfPoints="1485" NumberOfCells="2857">
		<CellData Scalars="density" Vectors="velocity">
			<DataArray type="Float64" Name="density" Format="ascii">
				1.1314
				1.32846
				0.788277
				0.967888
				1.51548
				2.992
				1.15514
				1.76948
				1.5
				0.968615
				0.99
				1.22725
				1.68482
				1.08493
				0.978705
				1.83915
				0.794576
				1.70085
				2.36444
				1.40535
				1.3185
				1.51228
				1.1472
				0.767958
				1.56228
				1.2576
				1.94202
				1.52691
				1.97926
				1.0037
				1.50629
				1.03654
				1.07102
				1.04076
				1.43747
				1.08055
				1.21688
				1.02727
				0.892127
				1.34187
				1.81297
				1.17778
				1.09551
				0.915617
				1.68477
				1.56281
				0.978984
				1.5723
				1.08934
				1.15929
				1.49439
				1.114
				1.14611
				1.33395
				1.54736
				1.37591
				1.27734
				1.12756
				1.29611
				1.04522
				1.47178
				1.33017
				1.05034
				1.10972
				1.05305
				1.05093
				1.0106
				1.12238
				1.06322
				1.07693
				1.01623
				1.04493
				1.07722
				1.10515
				1.131
				1.04753
				1.21443
				1.13146
				1.21937
				1.33441
				1.08438
				1.20245
				1.09324
				1.21922
				1.20415
				0.99744
				1.06299
				1.04893
				0.995935
				1.03332
				1.03877
				1.0366
				1.01934
				1.00246
				0.998872
				1.02799
				1.25317
				1.0349
				1.19231
				1.00167
				1.0003
				1.05369
				1.02089
				0.999751
				1.05614
				1.02446
				1.05047
				1.15466
				1.01475
				1.13222
				1.1328
				1.0443
				1.13682
				1.01283
				1.00052
				0.97461
				1.0258
				1.18101
				1.01886
				1.17008
				1.00137
				1.00001
				1.02644
				1.00039
				1.00009
				1.02335
				1.00224
				1.02034
				1.13836
				1.11616
				1.00026
				1.00753
				1.00171
				1.01413
				0.999979
				1.00006
				1.0081
				1.11237
				1.08739
				0.999993
				1.10739
				1.02895
				1.09191
				1.01941
				1.00134
				0.963014
				1.03159
				1.01566
				1.01724
				1.00119
				0.999985
				1.01013
				1.00023
				1.11559
				0.968851
				1.10538
				1.00013
				1.01482
				1.01163
				1.08667
				1.00017
				1.08155
				1.00001
				1.01295
				1
				1.00679
				1.00016
				1.06742
				1.06063
				1.00001
				1.00091
				1.00816
				0.968933
				1.04668
				1.1254
				1.13564
				1
				1.00103
				1.01103
				1.08052
				1.02188
				1.06871
				1.00395
				1.07331
				1.00492
				1.02415
				1
				1.00933
				1.0631
				1.00011
				1.00548
				1
				1
				1.00519
				1.0001
				0.947867
				1.00783
				1.00149
				0.967292
				0.970046
				1.0664
				1.00879
				1.04969
				1.00001
				1.00637
				1.00265
				1.05347
				1.06231
				1.00001
				0.97298
				1.04801
				1.05519
				0.999359
				1
				1.00513
				1
				1
				1
				1.00046
				1.00001
				1.02175
				1.01644
				1.00389
				1.00005
				0.907047
				0.979257
				0.997523
				1.04067
				1.04251
				1.00006
				0.958922
				0.998563
				1
				1.00363
				1.0333
				1.03572
				1.04778
				1.00281
				1.0005
				1.00392
				1
				1.04173
				0.99595
				1.00059
				1.00175
				1
				0.996917
				1.00001
				0.976905
				1
				0.968942
				1.02988
				0.964223
				1.0008
				0.994594
				1.00001
				1
				1.01972
				1.02588
				0.995492
				1.01337
				0.976974
				0.999794
				1
				1.03646
				1.03465
				0.993411
				1.02421
				1.03105
				0.994242
				0.969918
				1
				0.999003
				1.02081
				0.931464
				0.992386
				0.997998
				1.00401
				1.01737
				1
				0.993147
				1
				1
				1
				1.00316
				0.891679
				0.997379
				0.991483
				1
				0.982422
				1.0268
				0.992184
				1.01362
				1
				1
				1.01311
				0.996411
				1.02229
				0.990685
				1.02293
				1.00896
				1.0004
				0.991328
				1
				1.00004
				1.0006
				0.9751
				1.01735
				1.00986
				0.974604
				0.99594
				0.989972
				0.962328
				1.00004
				0.980761
				0.990565
				0.9189
				0.994985
				1
				0.989331
				1.00655
				1
				0.989878
				0.985239
				1.0192
				0.994605
				1
				0.988748
				1.00285
				1
				0.989255
				1.00344
				1
				1
				0.993673
				1.01636
				1.00183
				0.988209
				1.01779
				0.988684
				0.987542
				0.993391
				1.00979
				0.934165
				1
				0.987703
				0.98815
				1.00093
				1.01241
				0.979627
				0.98722
				1.00648
				0.992511
				0.987646
				1
				0.986755
				1.01282
				0.997979
				0.987162
				0.992293
				0.983967
				0.986301
				0.986691
				1
				0.985855
				0.965884
				0.986231
				1
				0.985404
				0.991435
				0.985783
				1.01039
				0.984989
				0.985317
				0.996089
				1.0004
				0.982859
				0.991266
				1.011
				1
				1
				0.98428
				1
				0.993311
				0.990451
				1
				1.00224
				0.984726
				0.990326
				1.00767
				1.00921
				1.00674
				1
				1.00125
				0.991891
				1.00003
				1.00029
				0.989552
				1
				0.996477
				1.00005
				0.979599
				1
				0.989455
				1.00542
				1
				1.00452
				0.989303
				0.974504
				0.988723
				1
				0.9917
				0.988649
				0.943749
				0.988247
				1.00835
				0.987958
				1.00334
				0.987897
				0.985846
				1
				1
				0.987237
				1.00706
				1.00127
				1
				0.987183
				1
				0.985058
				1.00021
				0.98656
				1.00478
				0.98651
				1.00134
				0.997126
				0.982834
				0.985922
				0.981001
				1
				1
				0.985871
				1
				0.999748
				0.968869
				0.985314
				1.00102
				1.00319
				0.982254
				0.998148
				0.985252
				1.00467
				0.948444
				0.984727
				0.984659
				0.997854
				0.980736
				0.984138
				0.980207
				0.984072
				0.983413
				0.983343
				0.982692
				1
				1.0037
				0.982455
				1
				0.981512
				0.982238
				0.979781
				0.981745
				1.00002
				0.996744
				0.992018
				0.977893
				0.93414
				1
				0.94666
				0.97758
				1.00319
				0.995026
				1.00292
				0.975837
				1
				1
				1
				1
				1.001
				1
				1
				0.975606
				1.00278
				0.994171
				1.00018
				1
				1.00002
				1.00195
				0.95042
				0.973993
				1.0006
				1
				0.97382
				1
				0.999452
				0.972326
				1
				0.952265
				1.00013
				0.972193
				1.00096
				0.992029
				0.992611
				0.970802
				1.00217
				0.970692
				0.990626
				0.998941
				1.00022
				0.969384
				0.969284
				1.00186
				1
				0.968043
				0.990142
				1.00001
				1.00058
				0.96794
				1
				0.96676
				1
				0.966646
				0.999635
				0.988866
				1
				0.96553
				0.965386
				0.95839
				1.0005
				0.9644
				0.96421
				0.988571
				0.96354
				0.963314
				1
				0.998899
				1.00013
				0.999568
				0.963017
				1.00132
				0.954436
				0.961248
				0.962834
				0.96121
				0.957927
				0.999728
				1
				0.994832
				0.987423
				1
				1
				1
				0.98714
				0.998685
				1.00104
				0.95619
				0.986096
				1
				1
				0.998124
				1
				1.00043
				0.985957
				0.954822
				0.985006
				1.00077
				0.997566
				0.999944
				1.00039
				0.984826
				1
				1.00001
				0.983952
				0.99701
				1.00052
				1
				1
				1
				1
				0.983892
				1
				1.00008
				0.983087
				0.99723
				1
				1
				0.982954
				1.00001
				1.00005
				1.00024
				1.00028
				0.993257
				0.982204
				1
				0.996807
				0.999955
				0.982176
				0.966735
				0.981468
				0.996209
				0.981347
				1.00008
				1.00021
				0.98067
				0.999281
				0.980641
				0.995783
				0.976894
				0.999884
				0.980002
				0.979855
				1
				0.999314
				0.979488
				0.973692
				1
				0.979291
				0.999963
				0.996259
				0.979205
				0.978859
				0.97655
				0.978628
				1
				0.978741
				0.978681
				1
				0.978123
				1.00005
				1.00016
				0.995935
				1.00001
				0.973084
				0.975349
				0.978212
				1
				0.999791
				0.995277
				1.00013
				0.994946
				1
				0.99968
				0.999985
				0.995578
				0.999969
				1
				1
				1
				1
				1
				0.999539
				0.995321
				0.969396
				1.00007
				1
				0.994599
				0.999996
				1
				0.999483
				0.99433
				1
				1
				0.995066
				1.00005
				1.00002
				0.999363
				0.994853
				1
				0.994068
				1
				1
				1
				0.993838
				1
				0.999311
				1.00002
				0.994647
				1.00003
				1
				0.999933
				0.994455
				1
				1
				0.99361
				0.999212
				0.993395
				1
				1
				0.995508
				1
				0.994265
				1
				0.999997
				0.999185
				0.994095
				0.993176
				0.993035
				1
				0.993921
				0.993972
				0.999099
				0.993096
				0.992934
				0.99999
				0.993339
				0.981571
				0.994153
				1
				0.994462
				0.993868
				0.991072
				0.990459
				0.992387
				0.999076
				1
				1
				0.999973
				0.999004
				0.999993
				0.998989
				1
				1
				0.999956
				0.998926
				1
				1.00001
				0.990373
				0.998918
				0.999941
				1
				0.991572
				0.999999
				0.998863
				1
				0.998852
				0.999945
				0.999998
				1
				0.999948
				0.998802
				1
				1
				1
				0.998802
				0.999934
				0.998987
				1
				1
				1
				1
				1
				0.998756
				1
				1
				1
				0.998747
				0.999916
				0.998702
				1
				0.998707
				0.999906
				0.997414
				1
				0.998664
				1
				1
				1
				0.998655
				0.99992
				0.998612
				0.998619
				1
				1
				0.999999
				1
				0.998583
				0.999997
				0.998568
				0.999913
				1
				0.998554
				0.998544
				0.998543
				1
				1
				0.998617
				1
				0.998551
				0.99868
				0.998831
				0.999998
				0.999893
				0.998844
				0.998566
				0.997539
				1
				0.999886
				1
				0.997255
				0.999905
				0.998268
				0.998417
				0.9999
				1
				0.999878
				1
				1
				1
				1
				0.999873
				0.999997
				1
				0.999896
				1
				0.999665
				0.999892
				0.999995
				0.999868
				1
				1
				0.999863
				0.999996
				1
				1
				0.999888
				1
				0.999885
				0.999859
				1
				1
				1
				1
				0.999854
				0.999955
				1
				1
				1
				0.999882
				1
				0.999878
				0.999994
				1
				0.999851
				1
				0.999847
				1
				0.999876
				1
				0.999993
				0.999877
				1
				0.999818
				0.999846
				1
				0.999862
				1
				0.999882
				0.999829
				0.999909
				0.999885
				0.999721
				0.999818
				1
				1
				1
				1
				1
				1
				0.999993
				1
				1
				1
				0.999993
				0.99984
				0.999829
				1
				1
				0.999972
				1
				1
				1
				0.999992
				0.999732
				1
				0.999992
				0.99968
				1
				1
				1
				1
				1
				1
				0.999992
				1
				0.999991
				1
				1
				1
				1
				1
				0.999991
				1
				0.999991
				1
				1
				0.999991
				1
				1
				1
				0.999991
				0.99998
				1
				0.999991
				0.999993
				0.999987
				1
				1
				0.999993
				1
				1
				1
				1
				1
				1
				0.999985
				1
				1
				1
				1
				1
				1
				0.999997
				1
				1
				0.99999
				1
				1
				1
				1
				1
				1
				0.999987
				1
				1
				1
				1
				1
				1
				1
				1
				0.99999
				1
				1
				1
				1
				1
				1
				1
				1
				1
				1
				1
				1
				1
				1
				1
				0.999999
				1
				1
				1
				1
				0.999999
				0.999999
				1
				1
				1
				1
				1
				1
				1
				1
				0.999999
				1
				1
				1
				1
				1
				1
				1
				1
				1
				1
				1
				1
				1
				1
				1
				1
				1
				1
				1
				1
				1
				1
				1
				1
				1
				1
				1
				0.999999
				1
				1
				1
				1
				1
				1
				1
				1
				1
				1
				1
				1
				1
				1
				1
				1
				1
				1
				1
				1
				1
				1
				1
				1
				1
				1
				1
				1
				1
				1
				1
				1
				1
				1
				1
				1
				1
				1
				1
				1
				1
				1
				1
				1
				1
				1
				1
				1
				1
				1
				1
				1
				1
				1
				1
				1
				1
				1
				1
				1
				1
				1
				1
				1
				1
				1
				1
				1
				1
				1
				1
				1
				1
				1
				1
				1
				1
				1
				1
				1
				1
				1
				1
				1
				1
				1
				1
				1
				1
				1
				1
				1
				1
				1
				1
				1
				1
				1
				1
				1
				1
				1
				1
				1
				1
				1
				1
				1
				1
				1
				1
				1
				1
				1
				1
				1
				1
				1
				1
				1
				1
				1
				1
				1
				1
				1
				1
				1
				1
				1
				1
				1
				1
				1
				1
				1
				1
				1
				1
				1
				1
				1
				1
				1
				1
				1
				1
				1
				1
				1
				1
				1
				1
				1
				1
				1
				1
				1
				1
				1
				1
				1
				1
				1
				1
				1
				1
				1
				1
				1
				1
				1
				1
				1
				1
				1
				1
				1
				1
				1
				1
				1
				1
				1
				1
				1
				1
				1
				1
				1
				1
				1
				1
				1
				1
				1
				1
				1
				1
				1
				1
				1
				1
				1
				1
				1
				1
				1
				1
				1
				1
				1
				1
				1
				1
				1
				1
				1
				1
				1
				1
				1
				1
				1
				1
				1
				1
				1
				1
				1
				1
				1
				1
				1
				1
				1
				1
				1
				1
				1
				1
				1
				1
				1
				1
				1
				1
				1
				1
				1
				1
				1
				1
				1
				1
				1
				1
				1
				1
				1
				1
				1
				1
				1
				1
				1
				1
				1
				1
				1
				1
				1
				1
				1
				1
				1
				1
				1
				1
				1
				1
				1
				1
				1
				1
				1
				1
				1
				1
				1
				1
				1
				1
				1
				1
				1
				1
				1
				1
				1
				1
				1
				1
				1
				1
				1
				1
				1
				1
				1
				1
				1
				1
				1
				1
				1
				1
				1
				1
				1
				1
				1
				1
				1
				1
				1
				1
				1
				1
				1
				1
				1
				1
				1
				1
				1
				1
				1
				1
				1
				1
				1
				1
				1
				1
				1
				1
				1
				1
				1
				1
				1
				1
				1
				1
				1
				1
				1
				1
				1
				1
				1
				1
				1
				1
				1
				1
				1
				1
				1
				1
				1
				1
				1
				1
				1
				1
				1
				1
				1
				1
				1
				1
				1
				1
				1
				1
				1
				1
				1
				1
				1
				1
				1
				1
				1
				1
				1
				1
				1
				1
				1
				1
				1
				1
				1
				1
				1
				1
				1
				1
				1
				1
				1
				1
				1
				1
				1
				1
				1
				1
				1
				1
				1
				1
				1
				1
				1
				1
				1
				1
				1
				1
				1
				1
				1
				1
				1
				1
				1
				1
				1
				1
				1
				1
				1
				1
				1
				1
				1
				1
				1
				1
				1
				1
				1
				1
				1
				1
				1
				1
				1
				1
				1
				1
				1
				1
				1
				1
				1
				1
				1
				1
				1
				1
				1
				1
				1
				1
				1
				1
				1
				1
				1
				1
				1
				1
				1
				1
				1
				1
				1
				1
				1
				1
				1
				1
				1
				1
				1
				1
				1
				1
				1
				1
				1
				1
				1
				1
				1
				1
				1
				1
				1
				1
				1
				1
				1
				1
				1
				1
				1
				1
				1
				1
				1
				1
				1
				1
				1
				1
				1
				1
				1
				1
				1
				1
				1
				1
				1
				1
				1
				1
				1
				1
				1
				1
				1
				1
				1
				1
				1
				1
				1
				1
				1
				1
				1
				1
				1
				1
				1
				1
				1
				1
				1
				1
				1
				1
				1
				1
				1
				1
				1
				1
				1
				1
				1
				1
				1
				1
				1
				1
				1
				1
				1
				1
				1
				1
				1
				1
				1
				1
				1
				1
				1
				1
				1
				1
				1
				1
				1
				1
				1
				1
				1
				1
				1
				1
				1
				1
				1
				1
				1
				1
				1
				1
				1
				1
				1
				1
				1
				1
				1
				1
				1
				1
				1
				1
				1
				1
				1
				1
				1
				1
				1
				1
				1
				1
				1
				1
				1
				1
				1
				1
				1
				1
				1
				1
				1
				1
				1
				1
				1
				1
				1
				1
				1
				1
				1
				1
				1
				1
				1
				1
				1
				1
				1
				1
				1
				1
				1
				1
				1
				1
				1
				1
				1
				1
				1
				1
				1
				1
				1
				1
				1
				1
				1
				1
				1
				1
				1
				1
				1
				1
				1
				1
				1
				1
				1
				1
				1
				1
				1
				1
				1
				1
				1
				1
				1
				1
				1
				1
				1
				1
				1
				1
				1
				1
				1
				1
				1
				1
				1
				1
				1
				1
				1
				1
				1
				1
				1
				1
				1
				1
				1
				1
				1
				1
				1
				1
				1
				1
				1
				1
				1
				1
				1
				1
				1
				1
				1
				1
				1
				1
				1
				1
				1
				1
				1
				1
				1
				1
				1
				1
				1
				1
				1
				1
				1
				1
				1
				1
				1
				1
				1
				1
				1
				1
				1
				1
				1
				1
				1
				1
				1
				1
				1
				1
				1
				1
				1
				1
				1
				1
				1
				1
				1
				1
				1
				1
				1
				1
				1
				1
				1
				1
				1
				1
				1
				1
				1
				1
				1
				1
				1
				1
				1
				1
				1
				1
				1
				1
				1
				1
				1
				1
				1
				1
				1
				1
				1
				1
				1
				1
				1
				1
				1
				1
				1
				1
				1
				1
				1
				1
				1
				1
				1
				1
				1
				1
				1
				1
				1
				1
				1
				1
				1
				1
				1
				1
				1
				1
				1
				1
				1
				1
				1
				1
				1
				1
				1
				1
				1
				1
				1
				1
				1
				1
				1
				1
				1
				1
				1
				1
				1
				1
				1
				1
				1
				1
				1
				1
				1
				1
				1
				1
				1
				1
				1
				1
				1
				1
				1
				1
				1
				1
				1
				1
				1
				1
				1
				1
				1
				1
				1
				1
				1
				1
				1
				1
				1
				1
				1
				1
				1
				1
				1
				1
				1
				1
				1
				1
				1
				1
				1
				1
				1
				1
				1
				1
				1
				1
				1
				1
				1
				1
				1
				1
				1
				1
				1
				1
				1
				1
				1
				1
				1
				1
				1
				1
				1
				1
				1
				1
				1
				1
				1
				1
				1
				1
				1
				1
				1
				1
				1
				1
				1
				1
				1
				1
				1
				1
				1
				1
				1
				1
				1
				1
				1
				1
				1
				1
				1
				1
				1
				1
				1
				1
				1
				1
				1
				1
				1
				1
				1
				1
				1
				1
				1
				1
				1
				1
				1
				1
				1
				1
				1
				1
				1
				1
				1
				1
				1
				1
				1
				1
				1
				1
				1
				1
				1
				1
				1
				1
				1
				1
				1
				1
				1
				1
				1
				1
				1
				1
				1
				1
				1
				1
				1
				1
				1
				1
				1
				1
				1
				1
				1
				1
				1
				1
				1
				1
				1
				1
				1
				1
				1
				1
				1
				1
				1
				1
				1
				1
				1
				1
				1
				1
				1
				1
				1
				1
				1
				1
				1
				1
				1
				1
				1
				1
				1
				1
				1
				1
				1
				1
				1
				1
				1
				1
				1
				1
				1
				1
				1
				1
				1
				1
				1
				1
				1
				1
				1
				1
				1
				1
				1
				1
				1
				1
				1
				1
				1
				1
				1
				1
				1
				1
				1
				1
				1
				1
				1
				1
				1
				1
				1
				1
				1
				1
				1
				1
				1
				1
				1
				1
				1
				1
				1
				1
				1
				1
				1
				1
				1
				1
				1
				1
				1
				1
				1
				1
				1
				1
				1
				1
				1
				1
				1
				1
				1
				1
				1
				1
				1
				1
				1
				1
				1
				1
				1
				1
				1
				1
				1
				1
				1
				1
				1
				1
				1
				1
				1
				1
				1
				1
				1
				1
				1
				1
				1
				1
				1
				1
				1
				1
				1
				1
				1
				1
				1
				1
				1
				1
				1
				1
				1
				1
				1
				1
				1
				1
				1
				1
				1
				1
				1
				1
				1
				1
				1
				1
				1
				1
				1
				1
				1
				1
				1
				1
				1
				1
				1
				1
				1
				1
				1
				1
				1
				1
				1
				1
				1
				1
				1
				1
				1
				1
				1
				1
				1
				1
				1
				1
				1
				1
				1
				1
				1
				1
				1
				1
				1
				1
				1
				1
				1
				1
				1
				1
				1
				1
				1
				1
				1
				1
				1
				1
				1
				1
				1
				1
				1
				1
				1
				1
				1
				1
				1
				1
				1
				1
				1
				1
				1
				1
				1
				1
				1
				1
				1
				1
				1
				1
				1
				1
				1
				1
				1
				1
				1
				1
				1
				1
				1
				1
				1
				1
				1
				1
				1
				1
				1
				1
				1
				1
				1
				1
				1
				1
				1
				1
				1
				1
				1
				1
				1
				1
				1
				1
				1
				1
				1
				1
				1
				1
				1
				1
				1
				1
				1
				1
				1
				1
				1
				1
				1
				1
				1
				1
				1
				1
				1
				1
				1
				1
				1
				1
				1
				1
				1
				1
				1
				1
				1
				1
				1
				1
				1
				1
				1
				1
				1
				1
				1
				1
				1
				1
				1
				1
				1
				1
				1
				1
				1
				1
				1
				1
				1
				1
				1
				1
				1
				1
				1
				1
				1
				1
				1
				1
				1
				1
				1
				1
				1
				1
				1
				1
				1
				1
				1
				1
				1
				1
				1
				1
				1
				1
				1
				1
				1
				1
				1
				1
				1
				1
				1
				1
				1
				1
				1
				1
				1
				1
				1
				1
				1
				1
				1
				1
				1
				1
				1
				1
				1
				1
				1
				1
				1
				1
				1
				1
				1
				1
				1
				1
				1
				1
				1
				1
				1
				1
				1
				1
				1
				1
				1
				1
				1
				1
				1
				1
				1
				1
				1
				1
				1
				1
				1
				1
				1
				1
				1
				1
				1
				1
				1
				1
				1
				1
				1
				1
				1
				1
				1
				1
				1
				1
				1
				1
				1
				1
				1
				1
				1
				1
				1
				1
				1
				1
				1
				1
				1
				1
				1
				1
				1
				1
				1
				1
				1
				1
				1
				1
				1
				1
				1
				1
				1
				1
				1
				1
				1
				1
				1
				1
				1
				1
				1
				1
				1
				1
				1
				1
				1
				1
				1
				1
				1
				1
				1
				1
				1
				1
				1
				1
				1
				1
				1
				1
				1
				1
				1
				1
				1
				1
				1
				1
				1
				1
				1
				1
				1
				1
				1
				1
				1
				1
				1
				1
				1
				1
				1
				1
				1
				1
				1
				1
				1
				1
				1
				1
				1
				1
				1
				1
				1
				1
				1
				1
				1
				1
				1
				1
				1
				1
				1
				1
				1
				1
				1
				1
				1
				1
				1
				1
				1
				1
				1
				1
				1
				1
				1
				1
				1
				1
				1
				1
				1
				1
				1
				1
				1
				1
				1
				1
				1
				1
				1
				1
				1
				1
				1
				1
				1
				1
				1
				1
				1
				1
				1
				1
				1
				1
				1
				1
				1
				1
				1
				1
				1
				1
				1
				1
				1
				1
				1
				1
				1
				1
				1
				1
				1
				1
				1
				1
				1
				1
				1
				1
				1
				1
				1
				1
				1
				1
				1
				1
				1
				1
				1
				1
				1
				1
				1
				1
				1
				1
				1
				1
				1
				0.999999
				1
				1
				1
				1
				1
				1
				1
				1
				1
				1
				1
				0.999999
				1
				1
				1
				1
				0.999999
				0.999998
				1
				1
				0.999999
				1
				0.999998
				0.999999
				1
				1
				1
				0.999998
				1
				1
				1
				0.999999
				0.999998
				1
				1
				1
				0.99954
				0.999996
				0.999999
				0.999968
				1
				0.999997
				0.99976
				1
				0.999999
				1
				1
				0.999999
				1
				0.99975
				1
				0.999999
				0.999501
				0.999624
				0.999919
				0.999915
				1
				0.999707
				0.999822
				0.99978
				0.999404
				0.999999
				0.999755
				0.999996
				0.999881
				0.999956
				0.999464
				0.999979
				0.999965
				0.999512
				0.999835
				0.999962
				0.980244
				0.999573
				0.999971
				0.999973
				0.999107
				0.999324
				0.999839
				0.999481
				0.975497
				0.999868
				0.961397
				0.999821
				0.999905
				0.999813
				0.999962
				0.999543
				0.949236
				0.97364
				0.955328
				0.962561
				0.985158
				0.999904
				0.970572
				0.999749
				0.988392
				0.999114
				0.955336
				0.977427
				0.987647
				0.982684
				0.989021
				0.958556
				0.944003
				0.9292
				0.98237
				0.980151
				0.955227
				0.984879
				0.978209
				0.948392
				0.985332
				0.986324
				0.975941
				0.95842
			</DataArray>
			<DataArray type="Float64" Name="mach-number" Format="ascii">
				0.176876
				0.526658
				0.470262
				0.16421
				0.162438
				0.486326
				0.321246
				0.4
				0.41
				0.212569
				0.25
				0.295596
				0.0870867
				0.614512
				0.292977
				0.707378
				0.625382
				0.291762
				0.119737
				0.126859
				0.145546
				0.320649
				0.254528
				0.757373
				0.316981
				0.357089
				0.330654
				0.273282
				0.21492
				0.501161
				0.147933
				0.495698
				0.677197
				0.547116
				0.564222
				0.428265
				0.285001
				0.373874
				0.229139
				0.474248
				0.295776
				0.338467
				0.441065
				0.251147
				0.32026
				0.292984
				0.317754
				0.185425
				0.400999
				0.363695
				0.374415
				0.218886
				0.362572
				0.493031
				0.294121
				0.321921
				0.478103
				0.401645
				0.325204
				0.391111
				0.341794
				0.352378
				0.406273
				0.388474
				0.387838
				0.321878
				0.365512
				0.373553
				0.381928
				0.387516
				0.382609
				0.393026
				0.358168
				0.342638
				0.317875
				0.369772
				0.343895
				0.337129
				0.343081
				0.354192
				0.36213
				0.437423
				0.361931
				0.358738
				0.420154
				0.37787
				0.3626
				0.395821
				0.376794
				0.379226
				0.40253
				0.376587
				0.397152
				0.37937
				0.377761
				0.371602
				0.357521
				0.378536
				0.362521
				0.378359
				0.38012
				0.376809
				0.374405
				0.379449
				0.378831
				0.377466
				0.38346
				0.419403
				0.375229
				0.353498
				0.404519
				0.382906
				0.352997
				0.376296
				0.380193
				0.388616
				0.376386
				0.359209
				0.378311
				0.357743
				0.378746
				0.377805
				0.380289
				0.380068
				0.37992
				0.380969
				0.378907
				0.377459
				0.412347
				0.399314
				0.379942
				0.377456
				0.37927
				0.379333
				0.379988
				0.380013
				0.377498
				0.370093
				0.365252
				0.379995
				0.369706
				0.378297
				0.365118
				0.381243
				0.37958
				0.43852
				0.378468
				0.378622
				0.381864
				0.379658
				0.37999
				0.380459
				0.379967
				0.407532
				0.377743
				0.403669
				0.379958
				0.382523
				0.379798
				0.370043
				0.379946
				0.370188
				0.379997
				0.382924
				0.379994
				0.381792
				0.379952
				0.368959
				0.369951
				0.379993
				0.379898
				0.381036
				0.415588
				0.305551
				0.276647
				0.289319
				0.38
				0.379918
				0.383439
				0.395271
				0.38031
				0.372415
				0.383155
				0.393887
				0.378684
				0.381582
				0.379999
				0.38371
				0.372669
				0.379966
				0.378624
				0.38
				0.38
				0.382302
				0.37997
				0.363469
				0.384139
				0.384404
				0.423286
				0.359928
				0.370412
				0.440311
				0.372275
				0.379995
				0.384328
				0.383551
				0.374552
				0.391573
				0.379996
				0.424963
				0.374948
				0.390918
				0.385555
				0.38
				0.384696
				0.38
				0.38
				0.38
				0.384748
				0.379997
				0.381855
				0.380359
				0.384908
				0.37998
				0.352895
				0.405204
				0.386658
				0.37644
				0.374341
				0.379979
				0.328389
				0.385892
				0.38
				0.379264
				0.375244
				0.376773
				0.389535
				0.385121
				0.379944
				0.379211
				0.38
				0.388885
				0.387687
				0.379955
				0.385337
				0.38
				0.386979
				0.379999
				0.408786
				0.38
				0.349851
				0.378024
				0.427134
				0.385419
				0.388641
				0.379999
				0.38
				0.381329
				0.378474
				0.387978
				0.381381
				0.348726
				0.385598
				0.38
				0.387843
				0.375399
				0.389545
				0.376793
				0.387299
				0.388919
				0.400366
				0.38
				0.385614
				0.379398
				0.322381
				0.390366
				0.385769
				0.379424
				0.380021
				0.38
				0.389793
				0.38
				0.38
				0.38
				0.379351
				0.413368
				0.385746
				0.391133
				0.38
				0.401408
				0.386474
				0.390592
				0.381958
				0.38
				0.38
				0.380541
				0.385856
				0.377424
				0.391849
				0.386231
				0.381239
				0.379966
				0.39134
				0.38
				0.37999
				0.380039
				0.391155
				0.37797
				0.38112
				0.365388
				0.385786
				0.392517
				0.349552
				0.379989
				0.402645
				0.392039
				0.390572
				0.385861
				0.38
				0.393139
				0.381488
				0.38
				0.392691
				0.369841
				0.385267
				0.385779
				0.38
				0.393723
				0.379657
				0.38
				0.393299
				0.381993
				0.38
				0.38
				0.385839
				0.384962
				0.37964
				0.394287
				0.378061
				0.393873
				0.372147
				0.385739
				0.380818
				0.346675
				0.38
				0.394836
				0.394432
				0.382256
				0.37879
				0.38982
				0.395367
				0.381063
				0.385762
				0.394975
				0.38
				0.395887
				0.384227
				0.382697
				0.395504
				0.385652
				0.399764
				0.39639
				0.396026
				0.38
				0.396844
				0.431104
				0.396527
				0.38
				0.397303
				0.385661
				0.396973
				0.383841
				0.398159
				0.39745
				0.382883
				0.379999
				0.400333
				0.385551
				0.379045
				0.38
				0.38
				0.399349
				0.38
				0.383261
				0.38555
				0.38
				0.379727
				0.398392
				0.385442
				0.383279
				0.379322
				0.381155
				0.38
				0.379811
				0.383384
				0.379995
				0.379979
				0.385432
				0.38
				0.377581
				0.379994
				0.387596
				0.38
				0.385329
				0.382874
				0.38
				0.380826
				0.383703
				0.367882
				0.38531
				0.38
				0.374903
				0.385212
				0.394649
				0.383776
				0.379375
				0.385187
				0.382426
				0.385097
				0.384048
				0.38
				0.38
				0.38508
				0.379603
				0.382026
				0.38
				0.385005
				0.38
				0.384093
				0.380008
				0.384995
				0.380626
				0.384931
				0.379886
				0.378036
				0.38432
				0.384925
				0.385946
				0.38
				0.38
				0.38487
				0.38
				0.381653
				0.370429
				0.38487
				0.379858
				0.380655
				0.384332
				0.378804
				0.384832
				0.379797
				0.389919
				0.384833
				0.384811
				0.381276
				0.386046
				0.384781
				0.38452
				0.384771
				0.384688
				0.38468
				0.384804
				0.38
				0.379912
				0.384746
				0.38
				0.385432
				0.385172
				0.384522
				0.385343
				0.379995
				0.380954
				0.376436
				0.384682
				0.371267
				0.38
				0.379395
				0.384667
				0.380702
				0.380591
				0.379976
				0.384802
				0.38
				0.38
				0.38
				0.38
				0.37991
				0.38
				0.38
				0.384786
				0.380775
				0.380315
				0.38003
				0.38
				0.379996
				0.38007
				0.374477
				0.384899
				0.379932
				0.38
				0.384873
				0.38
				0.379654
				0.384969
				0.38
				0.388719
				0.379994
				0.384948
				0.380121
				0.379735
				0.379975
				0.385033
				0.380425
				0.385008
				0.379417
				0.379635
				0.380174
				0.385087
				0.38507
				0.380422
				0.38
				0.385143
				0.379214
				0.379997
				0.379963
				0.385123
				0.38
				0.385191
				0.38
				0.385185
				0.380223
				0.378911
				0.38
				0.385244
				0.385244
				0.385723
				0.379961
				0.385269
				0.385297
				0.378729
				0.38526
				0.385256
				0.38
				0.380266
				0.380015
				0.379726
				0.385294
				0.380391
				0.386541
				0.385431
				0.385182
				0.385696
				0.38623
				0.379843
				0.38
				0.379701
				0.378448
				0.38
				0.38
				0.38
				0.378299
				0.380239
				0.380342
				0.386224
				0.378037
				0.38
				0.38
				0.380259
				0.38
				0.379979
				0.377897
				0.369876
				0.377652
				0.380241
				0.3803
				0.379964
				0.38
				0.377539
				0.38
				0.379999
				0.377307
				0.380312
				0.380202
				0.38
				0.38
				0.38
				0.38