<VTKFile type="UnstructuredGrid" version="0.1" byte_order="LittleEndian">
<UnstructuredGrid>
	<Piece NumberOfPoints="288" NumberOfCells="512">
		<CellData Scalars="density" Vectors="velocity">
			<DataArray type="Float64" Name="density" Format="ascii">
				1.04958
				1.04411
				1.04045
				1.04109
				1.01314
				1.02782
				0.969205
				0.998837
				0.913924
				0.956404
				0.854946
				0.906653
				0.80182
				0.857867
				0.768181
				0.821121
				0.770094
				0.810083
				0.806177
				0.82998
				0.860937
				0.870867
				0.921114
				0.920323
				0.977743
				0.969597
				1.02461
				1.01276
				1.0566
				1.04567
				1.06841
				1.06605
				1.06841
				1.07178
				1.0566
				1.06605
				1.02461
				1.04567
				0.977744
				1.01276
				0.921115
				0.969597
				0.860938
				0.920323
				0.806179
				0.870869
				0.770096
				0.829982
				0.768183
				0.810085
				0.801821
				0.821122
				0.854947
				0.857869
				0.913924
				0.906654
				0.969206
				0.956405
				1.01314
				0.998838
				1.04045
				1.02782
				1.04958
				1.04109
				1.03565
				1.04688
				1.03081
				1.044
				1.01865
				1.03254
				0.999037
				1.01237
				0.974507
				0.985099
				0.948036
				0.952705
				0.924286
				0.919226
				0.909889
				0.891757
				0.910749
				0.880026
				0.926689
				0.889425
				0.951751
				0.915216
				0.979516
				0.9486
				1.00547
				0.982579
				1.02685
				1.01257
				1.04215
				1.03562
				1.05
				1.04987
				1.05
				1.05443
				1.04215
				1.04987
				1.02685
				1.03562
				1.00547
				1.01257
				0.979516
				0.982579
				0.951752
				0.9486
				0.926689
				0.915217
				0.91075
				0.889427
				0.90989
				0.880027
				0.924287
				0.891758
				0.948037
				0.919227
				0.974508
				0.952706
				0.999038
				0.985099
				1.01865
				1.01237
				1.03081
				1.03254
				1.03565
				1.044
				1.02651
				1.021
				1.02485
				1.0192
				1.01615
				1.01568
				1.00399
				1.00782
				0.98892
				0.997371
				0.972663
				0.985414
				0.958157
				0.973769
				0.94924
				0.965083
				0.949004
				0.96201
				0.957632
				0.965731
				0.972243
				0.975081
				0.989061
				0.98744
				1.00502
				1.00017
				1.01816
				1.01139
				1.02746
				1.01995
				1.03235
				1.02528
				1.03235
				1.02702
				1.02746
				1.02528
				1.01816
				1.01995
				1.00502
				1.01139
				0.989061
				1.00017
				0.972243
				0.987441
				0.957632
				0.975082
				0.949005
				0.965732
				0.949241
				0.962011
				0.958157
				0.965083
				0.972664
				0.973769
				0.98892
				0.985414
				1.00399
				0.997371
				1.01615
				1.00782
				1.02485
				1.01568
				1.02651
				1.0192
				1.0076
				1.00968
				1.00794
				1.012
				1.00579
				1.00994
				1.00206
				1.00555
				0.997406
				0.999625
				0.992537
				0.992891
				0.988421
				0.986447
				0.986099
				0.981723
				0.98629
				0.980066
				0.988956
				0.982027
				0.993365
				0.987026
				0.998469
				0.993717
				1.00333
				1.00068
				1.00731
				1.00682
				1.01008
				1.0115
				1.01149
				1.01436
				1.01149
				1.01533
				1.01008
				1.01436
				1.00731
				1.0115
				1.00333
				1.00682
				0.998469
				1.00068
				0.993366
				0.993717
				0.988956
				0.987026
				0.98629
				0.982028
				0.986099
				0.980066
				0.988421
				0.981724
				0.992538
				0.986447
				0.997407
				0.992891
				1.00206
				0.999625
				1.00579
				1.00555
				1.00794
				1.00994
				1.0076
				1.012
				1.00294
				1.00191
				1.00464
				1.00243
				1.00313
				1.00269
				1.00114
				1.0016
				0.998733
				1.00003
				0.996258
				0.998276
				0.994199
				0.996639
				0.99307
				0.995482
				0.993208
				0.995122
				0.994585
				0.995675
				0.996833
				0.996996
				0.999432
				0.998757
				1.00191
				1.00059
				1.00393
				1.00221
				1.00533
				1.00343
				1.00604
				1.00419
				1.00604
				1.00444
				1.00533
				1.00419
				1.00393
				1.00343
				1.00191
				1.00221
				0.999432
				1.00059
				0.996834
				0.998757
				0.994585
				0.996996
				0.993208
				0.995675
				0.99307
				0.995122
				0.994199
				0.995482
				0.996258
				0.996639
				0.998733
				0.998276
				1.00114
				1.00003
				1.00313
				1.0016
				1.00464
				1.00269
				1.00294
				1.00243
				0.99996
				0.999002
				1.00092
				1.00164
				1.00071
				1.00129
				1.00023
				1.00068
				0.999675
				0.999919
				0.999113
				0.999089
				0.998655
				0.998326
				0.998418
				0.9978
				0.998478
				0.997661
				0.998829
				0.997963
				0.999383
				0.998633
				1.00002
				0.999509
				1.00062
				1.00041
				1.00111
				1.0012
				1.00145
				1.0018
				1.00162
				1.00216
				1.00162
				1.00228
				1.00145
				1.00216
				1.00111
				1.0018
				1.00062
				1.0012
				1.00002
				1.00041
				0.999384
				0.999509
				0.998829
				0.998633
				0.998478
				0.997963
				0.998419
				0.997662
				0.998655
				0.9978
				0.999113
				0.998326
				0.999675
				0.999089
				1.00023
				0.999919
				1.00071
				1.00068
				1.00092
				1.00129
				0.99996
				1.00164
				0.999503
				0.999518
				1.00058
				0.999969
				1.00029
				1.00024
				1.00009
				1.00013
				0.999839
				0.999983
				0.999586
				0.999819
				0.999384
				0.999666
				0.999289
				0.999564
				0.999331
				0.999542
				0.999503
				0.999614
				0.999766
				0.999764
				1.00006
				0.999961
				1.00035
				1.00016
				1.00058
				1.00035
				1.00074
				1.00048
				1.00083
				1.00057
				1.00083
				1.0006
				1.00074
				1.00057
				1.00058
				1.00048
				1.00035
				1.00035
				1.00006
				1.00017
				0.999766
				0.999961
				0.999503
				0.999764
				0.999331
				0.999614
				0.999289
				0.999542
				0.999384
				0.999564
				0.999586
				0.999666
				0.999839
				0.999819
				1.00009
				0.999983
				1.00029
				1.00013
				1.00058
				1.00024
				0.999503
				0.999969
				0.999505
				0.999068
				1.00005
				1.00026
				1.00002
				1.00002
				0.999975
				0.999978
				0.999922
				0.99992
				0.999872
				0.999854
				0.999839
				0.999794
				0.999834
				0.99976
				0.999868
				0.999767
				0.999941
				0.999827
				1.00004
				0.999934
				1.00014
				1.00006
				1.00022
				1.00019
				1.00029
				1.00029
				1.00034
				1.00037
				1.00036
				1.00042
				1.00036
				1.00043
				1.00034
				1.00042
				1.00029
				1.00037
				1.00022
				1.00029
				1.00014
				1.00019
				1.00004
				1.00006
				0.999941
				0.999934
				0.999868
				0.999827
				0.999834
				0.999767
				0.999839
				0.99976
				0.999872
				0.999794
				0.999922
				0.999854
				0.999975
				0.99992
				1.00002
				0.999978
				1.00005
				1.00002
				0.999505
				1.00026
			</DataArray>
			<DataArray type="Float64" Name="mach-number" Format="ascii">
				0.0557982
				0.0490857
				0.160806
				0.125536
				0.286204
				0.231681
				0.417053
				0.347755
				0.545485
				0.463831
				0.665181
				0.573446
				0.766479
				0.668917
				0.8298
				0.73748
				0.828339
				0.76049
				0.765464
				0.730091
				0.667599
				0.660453
				0.553476
				0.568775
				0.432251
				0.465803
				0.308179
				0.357698
				0.184692
				0.249203
				0.0705475
				0.148454
				0.0705465
				0.0756803
				0.184691
				0.148454
				0.308178
				0.249202
				0.432249
				0.357697
				0.553474
				0.465801
				0.667597
				0.568773
				0.765461
				0.660451
				0.828335
				0.730088
				0.829797
				0.760487
				0.766476
				0.737478
				0.665178
				0.668915
				0.545483
				0.573444
				0.417051
				0.463829
				0.286202
				0.347753
				0.160804
				0.23168
				0.0557975
				0.125535
				0.190907
				0.11935
				0.256442
				0.194279
				0.313436
				0.266378
				0.373074
				0.339267
				0.436031
				0.414657
				0.497663
				0.490326
				0.54964
				0.560248
				0.580686
				0.613825
				0.580801
				0.636219
				0.550193
				0.618811
				0.498498
				0.568679
				0.435988
				0.499289
				0.37042
				0.421112
				0.30822
				0.341399
				0.256241
				0.267035
				0.220477
				0.207235
				0.220476
				0.158333
				0.25624
				0.207235
				0.308219
				0.267035
				0.370419
				0.341398
				0.435986
				0.421111
				0.498496
				0.499287
				0.550192
				0.568678
				0.580799
				0.618809
				0.580684
				0.636217
				0.549638
				0.613823
				0.497661
				0.560246
				0.436031
				0.490325
				0.373073
				0.414656
				0.313435
				0.339266
				0.256442
				0.266377
				0.190905
				0.194278
				0.251683
				0.264655
				0.298998
				0.302922
				0.329568
				0.327456
				0.365541
				0.352408
				0.406057
				0.382817
				0.446328
				0.415293
				0.479973
				0.444918
				0.499835
				0.466119
				0.500425
				0.473785
				0.481414
				0.465708
				0.447802
				0.444104
				0.406569
				0.414047
				0.364143
				0.38109
				0.325855
				0.350026
				0.296185
				0.324692
				0.279574
				0.308263
				0.279574
				0.301798
				0.296185
				0.308263
				0.325854
				0.324692
				0.364143
				0.350025
				0.406568
				0.38109
				0.447801
				0.414046
				0.481413
				0.444103
				0.500424
				0.465707
				0.499834
				0.473784
				0.479972
				0.466117
				0.446327
				0.444917
				0.406057
				0.415292
				0.36554
				0.382817
				0.329567
				0.352408
				0.298998
				0.327455
				0.251682
				0.302922
				0.334365
				0.301223
				0.352673
				0.340156
				0.361171
				0.34865
				0.373205
				0.36247
				0.386728
				0.379813
				0.399953
				0.398235
				0.410721
				0.414957
				0.416694
				0.426809
				0.416274
				0.430938
				0.409529
				0.426174
				0.398168
				0.413723
				0.384697
				0.396537
				0.371519
				0.377999
				0.360453
				0.361002
				0.352644
				0.347629
				0.348576
				0.339179
				0.348576
				0.336019
				0.352644
				0.339179
				0.360452
				0.347628
				0.371519
				0.361002
				0.384697
				0.377999
				0.398167
				0.396536
				0.409528
				0.413723
				0.416273
				0.426173
				0.416693
				0.430938
				0.410721
				0.426808
				0.399952
				0.414956
				0.386727
				0.398234
				0.373205
				0.379812
				0.361171
				0.36247
				0.352673
				0.34865
				0.334365
				0.340156
				0.35307
				0.354161
				0.365933
				0.366435
				0.370321
				0.371256
				0.376683
				0.375612
				0.383534
				0.380304
				0.390233
				0.385122
				0.395688
				0.389494
				0.398661
				0.392535
				0.398333
				0.393458
				0.394754
				0.391968
				0.388827
				0.388439
				0.381878
				0.383719
				0.375172
				0.378773
				0.369621
				0.374382
				0.365745
				0.37104
				0.363763
				0.368984
				0.363763
				0.368291
				0.365745
				0.368984
				0.369621
				0.37104
				0.375171
				0.374382
				0.381878
				0.378773
				0.388826
				0.383719
				0.394753
				0.388438
				0.398332
				0.391968
				0.398661
				0.393458
				0.395688
				0.392535
				0.390232
				0.389494
				0.383534
				0.385121
				0.376682
				0.380303
				0.370321
				0.375612
				0.365933
				0.371256
				0.35307
				0.366435
				0.37044
				0.360252
				0.376893
				0.374962
				0.378483
				0.376197
				0.379874
				0.378518
				0.381351
				0.380644
				0.382837
				0.382868
				0.384043
				0.384902
				0.384658
				0.386302
				0.384486
				0.386677
				0.383542
				0.385882
				0.382052
				0.384101
				0.380345
				0.381757
				0.378725
				0.379328
				0.377406
				0.377192
				0.376502
				0.375586
				0.376042
				0.374606
				0.376042
				0.374282
				0.376502
				0.374606
				0.377406
				0.375586
				0.378725
				0.377192
				0.380344
				0.379327
				0.382052
				0.381757
				0.383542
				0.384101
				0.384486
				0.385882
				0.384658
				0.386677
				0.384042
				0.386302
				0.382837
				0.384902
				0.381351
				0.382867
				0.379874
				0.380644
				0.378483
				0.378518
				0.376893
				0.376197
				0.37044
				0.374962
				0.37408
				0.372749
				0.37908
				0.378331
				0.379564
				0.379803
				0.380084
				0.380055
				0.380738
				0.380427
				0.381415
				0.380865
				0.381961
				0.38127
				0.382226
				0.381534
				0.382125
				0.381573
				0.381675
				0.381363
				0.380979
				0.380946
				0.380186
				0.380415
				0.379434
				0.379872
				0.378823
				0.379398
				0.378413
				0.379048
				0.378204
				0.378852
				0.378204
				0.378803
				0.378413
				0.378852
				0.378823
				0.379048
				0.379434
				0.379398
				0.380186
				0.379871
				0.380979
				0.380415
				0.381675
				0.380946
				0.382125
				0.381363
				0.382226
				0.381573
				0.38196
				0.381534
				0.381415
				0.381269
				0.380738
				0.380865
				0.380084
				0.380427
				0.379564
				0.380055
				0.37908
				0.379803
				0.37408
				0.378331
				0.378191
				0.37337
				0.380415
				0.380355
				0.380416
				0.380413
				0.380464
				0.380481
				0.380536
				0.380602
				0.380613
				0.380748
				0.380669
				0.380882
				0.380671
				0.380956
				0.380593
				0.380926
				0.380434
				0.380771
				0.380222
				0.380511
				0.379995
				0.3802
				0.379787
				0.379894
				0.37962
				0.379636
				0.379505
				0.379451
				0.379447
				0.379361
				0.379447
				0.379347
				0.379505
				0.379361
				0.37962
				0.379451
				0.379787
				0.379636
				0.379995
				0.379894
				0.380222
				0.3802
				0.380434
				0.380511
				0.380593
				0.380771
				0.380671
				0.380926
				0.380669
				0.380956
				0.380613
				0.380882
				0.380536
				0.380748
				0.380464
				0.380602
				0.380416
				0.380481
				0.380415
				0.380413
				0.378191
				0.380355
			</DataArray>
			<DataArray type="Float64" Name="pressure" Format="ascii">
				5.33156
				5.29323
				5.25995
				5.2664
				5.06525
				5.16481
				4.75972
				4.95709
				4.38333
				4.66385
				3.99034
				4.32977
				3.64375
				4.01027
				3.42742
				3.77394
				3.43639
				3.70178
				3.6609
				3.82469
				4.00965
				4.08534
				4.40333
				4.40921
				4.78418
				4.73986
				5.10786
				5.03555
				5.33554
				5.26461
				5.43023
				5.40925
				5.43024
				5.45958
				5.33554
				5.40925
				5.10786
				5.26461
				4.78418
				5.03555
				4.40334
				4.73986
				4.00966
				4.40922
				3.66091
				4.08535
				3.43641
				3.8247
				3.42743
				3.70179
				3.64376
				3.77395
				3.99035
				4.01028
				4.38333
				4.32978
				4.75973
				4.66385
				5.06525
				4.95709
				5.25995
				5.16481
				5.33156
				5.2664
				5.22801
				5.30616
				5.18173
				5.28113
				5.08902
				5.1901
				4.94921
				5.04577
				4.77799
				4.85565
				4.59615
				4.6337
				4.43553
				4.40763
				4.3394
				4.2241
				4.34528
				4.14514
				4.45162
				4.20481
				4.6201
				4.37384
				4.80875
				4.59653
				4.98686
				4.82692
				5.13457
				5.03321
				5.24038
				5.1935
				5.29627
				5.29363
				5.29627
				5.33758
				5.24038
				5.29363
				5.13457
				5.1935
				4.98686
				5.03321
				4.80876
				4.82693
				4.62011
				4.59653
				4.45163
				4.37384
				4.34529
				4.20482
				4.3394
				4.14514
				4.43554
				4.22411
				4.59616
				4.40764
				4.77799
				4.6337
				4.94921
				4.85565
				5.08902
				5.04577
				5.18174
				5.1901
				5.22801
				5.28113
				5.16085
				5.12249
				5.13046
				5.09911
				5.06594
				5.06387
				4.97919
				5.00516
				4.87376
				4.9306
				4.76149
				4.84707
				4.66224
				4.76674
				4.60148
				4.70728
				4.59948
				4.68638
				4.65739
				4.71187
				4.75644
				4.77587
				4.87147
				4.8607
				4.98152
				4.94843
				5.07275
				5.02596
				5.1377
				5.0853
				5.17249
				5.12201
				5.17249
				5.13415
				5.1377
				5.12201
				5.07275
				5.0853
				4.98152
				5.02596
				4.87147
				4.94843
				4.75644
				4.8607
				4.6574
				4.77587
				4.59948
				4.71187
				4.60149
				4.68639
				4.66225
				4.70729
				4.7615
				4.76674
				4.87376
				4.84707
				4.97919
				4.9306
				5.06594
				5.00516
				5.13046
				5.06387
				5.16085
				5.09911
				5.01845
				5.04518
				5.00735
				5.0398
				4.98821
				5.01895
				4.9611
				4.98656
				4.92856
				4.94467
				4.89486
				4.89785
				4.86647
				4.85337
				4.8505
				4.82088
				4.85184
				4.80946
				4.87026
				4.82285
				4.90073
				4.85713
				4.93602
				4.9032
				4.96967
				4.95127
				4.99728
				4.99388
				5.01647
				5.02641
				5.0262
				5.04639
				5.0262
				5.05331
				5.01647
				5.04639
				4.99728
				5.02641
				4.96967
				4.99388
				4.93603
				4.95128
				4.90073
				4.9032
				4.87026
				4.85713
				4.85184
				4.82285
				4.8505
				4.80946
				4.86647
				4.82088
				4.89486
				4.85337
				4.92856
				4.89785
				4.9611
				4.94467
				4.98821
				4.98656
				5.00735
				5.01895
				5.01845
				5.0398
				4.98339
				4.97637
				4.97948
				4.96971
				4.96852
				4.96555
				4.95444
				4.9575
				4.93773
				4.94667
				4.92065
				4.93456
				4.90646
				4.92327
				4.89867
				4.91528
				4.89963
				4.9128
				4.90913
				4.91663
				4.92467
				4.92578
				4.94264
				4.93796
				4.95978
				4.95065
				4.97381
				4.96185
				4.98353
				4.97035
				4.98848
				4.97558
				4.98848
				4.97733
				4.98353
				4.97558
				4.97381
				4.97035
				4.95978
				4.96185
				4.94264
				4.95065
				4.92467
				4.93797
				4.90913
				4.92578
				4.89963
				4.91663
				4.89868
				4.9128
				4.90646
				4.91529
				4.92066
				4.92327
				4.93774
				4.93456
				4.95444
				4.94667
				4.96852
				4.9575
				4.97948
				4.96555
				4.98339
				4.96971
				4.9544
				4.95902
				4.95319
				4.95841
				4.95136
				4.95534
				4.94815
				4.95117
				4.94431
				4.94596
				4.94043
				4.94025
				4.93726
				4.93498
				4.93563
				4.93135
				4.93604
				4.93039
				4.93847
				4.93248
				4.94231
				4.93711
				4.9467
				4.94318
				4.95086
				4.94943
				4.95425
				4.95491
				4.9566
				4.95905
				4.95779
				4.96157
				4.95779
				4.96241
				4.9566
				4.96157
				4.95425
				4.95905
				4.95086
				4.95491
				4.9467
				4.94943
				4.94231
				4.94318
				4.93847
				4.93712
				4.93604
				4.93248
				4.93563
				4.93039
				4.93726
				4.93135
				4.94043
				4.93498
				4.94431
				4.94025
				4.94815
				4.94596
				4.95136
				4.95117
				4.95319
				4.95534
				4.9544
				4.95841
				4.94952
				4.94975
				4.94974
				4.94791
				4.94857
				4.94812
				4.94717
				4.94746
				4.94546
				4.94646
				4.94371
				4.94532
				4.94231
				4.94427
				4.94165
				4.94355
				4.94194
				4.94341
				4.94314
				4.9439
				4.94496
				4.94494
				4.94703
				4.94631
				4.94899
				4.94772
				4.95061
				4.94897
				4.95174
				4.94992
				4.95232
				4.95051
				4.95232
				4.95071
				4.95174
				4.95051
				4.95061
				4.94992
				4.94899
				4.94897
				4.94703
				4.94772
				4.94496
				4.94631
				4.94314
				4.94494
				4.94194
				4.9439
				4.94165
				4.94341
				4.94231
				4.94356
				4.94371
				4.94427
				4.94546
				4.94532
				4.94717
				4.94646
				4.94857
				4.94746
				4.94974
				4.94813
				4.94952
				4.94791
				4.94622
				4.94786
				4.94687
				4.94735
				4.94673
				4.94673
				4.94641
				4.94642
				4.94603
				4.94602
				4.94569
				4.94557
				4.94546
				4.94515
				4.94543
				4.94492
				4.94567
				4.94496
				4.94617
				4.94538
				4.94683
				4.94612
				4.94752
				4.94701
				4.94813
				4.94788
				4.9486
				4.94862
				4.94892
				4.94915
				4.94909
				4.94946
				4.94909
				4.94956
				4.94892
				4.94946
				4.9486
				4.94915
				4.94813
				4.94862
				4.94752
				4.94788
				4.94683
				4.94701
				4.94617
				4.94612
				4.94567
				4.94538
				4.94543
				4.94497
				4.94546
				4.94492
				4.94569
				4.94515
				4.94604
				4.94557
				4.94641
				4.94602
				4.94673
				4.94642
				4.94687
				4.94673
				4.94622
				4.94735
			</DataArray>
			<DataArray type="Float64" Name="velocity" NumberOfComponents="3" Format="ascii">
				0.123173 -0.0834866 0.0 
				0.13077 -1.06924e-06 0.0 
				0.25943 -0.340167 0.0 
				0.271967 -0.194011 0.0 
				0.485252 -0.581263 0.0 
				0.449004 -0.419531 0.0 
				0.799703 -0.745874 0.0 
				0.690771 -0.602563 0.0 
				1.16994 -0.793221 0.0 
				0.985997 -0.704675 0.0 
				1.54805 -0.703387 0.0 
				1.30786 -0.698618 0.0 
				1.87378 -0.476028 0.0 
				1.61305 -0.571348 0.0 
				2.06947 -0.13561 0.0 
				1.84191 -0.327046 0.0 
				2.05544 0.248353 0.0 
				1.92352 -0.00118146 0.0 
				1.84183 0.576824 0.0 
				1.82572 0.324917 0.0 
				1.51099 0.789252 0.0 
				1.5923 0.573871 0.0 
				1.13817 0.868768 0.0 
				1.28982 0.711482 0.0 
				0.779132 0.820288 0.0 
				0.973528 0.732922 0.0 
				0.475967 0.660531 0.0 
				0.685958 0.648147 0.0 
				0.260783 0.416106 0.0 
				0.460042 0.475492 0.0 
				0.137485 0.128497 0.0 
				0.315028 0.239404 0.0 
				0.137485 -0.128494 0.0 
				0.202104 1.66585e-06 0.0 
				0.260782 -0.416103 0.0 
				0.315028 -0.239401 0.0 
				0.475967 -0.660528 0.0 
				0.460043 -0.475488 0.0 
				0.779129 -0.820285 0.0 
				0.685957 -0.648145 0.0 
				1.13817 -0.868765 0.0 
				0.973525 -0.732919 0.0 
				1.51098 -0.789249 0.0 
				1.28982 -0.711479 0.0 
				1.84183 -0.576821 0.0 
				1.5923 -0.573869 0.0 
				2.05543 -0.248352 0.0 
				1.82571 -0.324916 0.0 
				2.06946 0.13561 0.0 
				1.92352 0.00118123 0.0 
				1.87378 0.476026 0.0 
				1.8419 0.327044 0.0 
				1.54804 0.703384 0.0 
				1.61305 0.571346 0.0 
				1.16994 0.793218 0.0 
				1.30785 0.698614 0.0 
				0.7997 0.74587 0.0 
				0.985994 0.704672 0.0 
				0.485249 0.581259 0.0 
				0.690768 0.60256 0.0 
				0.259428 0.340163 0.0 
				0.449002 0.419528 0.0 
				0.123172 0.0834843 0.0 
				0.271965 0.194008 0.0 
				0.499943 -0.0873237 0.0 
				0.317927 -1.2152e-06 0.0 
				0.646144 -0.212858 0.0 
				0.487226 -0.17296 0.0 
				0.765978 -0.316857 0.0 
				0.631432 -0.317227 0.0 
				0.903432 -0.386178 0.0 
				0.788542 -0.42586 0.0 
				1.06695 -0.408248 0.0 
				0.974863 -0.485961 0.0 
				1.24283 -0.369279 0.0 
				1.18619 -0.479616 0.0 
				1.4005 -0.261257 0.0 
				1.39766 -0.391897 0.0 
				1.49761 -0.0925734 0.0 
				1.56533 -0.219972 0.0 
				1.49765 0.101196 0.0 
				1.63373 0.0117138 0.0 
				1.40103 0.270079 0.0 
				1.57311 0.244481 0.0 
				1.2426 0.380481 0.0 
				1.40969 0.420125 0.0 
				1.06212 0.422331 0.0 
				1.1949 0.513178 0.0 
				0.890131 0.400511 0.0 
				0.972506 0.523315 0.0 
				0.747044 0.327045 0.0 
				0.773368 0.461515 0.0 
				0.644269 0.217138 0.0 
				0.618227 0.344146 0.0 
				0.579793 0.0842987 0.0 
				0.516661 0.190323 0.0 
				0.579793 -0.0842966 0.0 
				0.421501 1.15579e-06 0.0 
				0.644268 -0.217135 0.0 
				0.516661 -0.190321 0.0 
				0.747044 -0.327042 0.0 
				0.618227 -0.344143 0.0 
				0.890129 -0.400508 0.0 
				0.773367 -0.461512 0.0 
				1.06212 -0.422329 0.0 
				0.972504 -0.523313 0.0 
				1.2426 -0.380479 0.0 
				1.1949 -0.513176 0.0 
				1.40103 -0.270078 0.0 
				1.40968 -0.420124 0.0 
				1.49765 -0.101195 0.0 
				1.5731 -0.244479 0.0 
				1.4976 0.0925728 0.0 
				1.63373 -0.0117137 0.0 
				1.4005 0.261256 0.0 
				1.56533 0.219971 0.0 
				1.24283 0.369278 0.0 
				1.39766 0.391895 0.0 
				1.06694 0.408246 0.0 
				1.18618 0.479614 0.0 
				0.903431 0.386176 0.0 
				0.974862 0.485959 0.0 
				0.765978 0.316854 0.0 
				0.788541 0.425858 0.0 
				0.646143 0.212855 0.0 
				0.631431 0.317224 0.0 
				0.49994 0.0873206 0.0 
				0.487223 0.172957 0.0 
				0.666332 -0.043071 0.0 
				0.701408 -1.04447e-06 0.0 
				0.780629 -0.131047 0.0 
				0.7987 -0.0693132 0.0 
				0.848959 -0.193284 0.0 
				0.855792 -0.126727 0.0 
				0.933905 -0.235726 0.0 
				0.913699 -0.169229 0.0 
				1.03725 -0.248508 0.0 
				0.988759 -0.191381 0.0 
				1.14701 -0.222814 0.0 
				1.07375 -0.186382 0.0 
				1.24315 -0.154656 0.0 
				1.15513 -0.14928 0.0 
				1.30114 -0.0505193 0.0 
				1.21535 -0.0810283 0.0 
				1.30173 0.0686089 0.0 
				1.23728 0.00723999 0.0 
				1.24412 0.173672 0.0 
				1.21343 0.0951614 0.0 
				1.14657 0.24249 0.0 
				1.15152 0.16251 0.0 
				1.03364 0.267207 0.0 
				1.06875 0.198043 0.0 
				0.925794 0.251119 0.0 
				0.982734 0.200462 0.0 
				0.836382 0.202738 0.0 
				0.90657 0.174661 0.0 
				0.772538 0.13158 0.0 
				0.848245 0.127911 0.0 
				0.739009 0.0462112 0.0 
				0.812458 0.0672802 0.0 
				0.73901 -0.0462094 0.0 
				0.798408 7.89917e-07 0.0 
				0.772537 -0.131579 0.0 
				0.812457 -0.0672785 0.0 
				0.836381 -0.202736 0.0 
				0.848245 -0.127909 0.0 
				0.925793 -0.251117 0.0 
				0.906569 -0.17466 0.0 
				1.03364 -0.267206 0.0 
				0.982732 -0.20046 0.0 
				1.14657 -0.242488 0.0 
				1.06875 -0.198042 0.0 
				1.24412 -0.173671 0.0 
				1.15152 -0.162509 0.0 
				1.30173 -0.0686086 0.0 
				1.21343 -0.0951609 0.0 
				1.30114 0.0505189 0.0 
				1.23728 -0.00724009 0.0 
				1.24315 0.154655 0.0 
				1.21534 0.0810276 0.0 
				1.147 0.222812 0.0 
				1.15512 0.149279 0.0 
				1.03725 0.248507 0.0 
				1.07375 0.18638 0.0 
				0.933904 0.235724 0.0 
				0.988758 0.191379 0.0 
				0.848958 0.193282 0.0 
				0.913699 0.169227 0.0 
				0.780628 0.131045 0.0 
				0.855792 0.126726 0.0 
				0.666329 0.0430689 0.0 
				0.798699 0.0693115 0.0 
				0.882697 -0.0202864 0.0 
				0.796709 -6.504e-07 0.0 
				0.92921 -0.0403674 0.0 
				0.897328 -0.0389104 0.0 
				0.949721 -0.0611569 0.0 
				0.916963 -0.0699861 0.0 
				0.979737 -0.0742623 0.0 
				0.950476 -0.0935746 0.0 
				1.01422 -0.0773653 0.0 
				0.993925 -0.105442 0.0 
				1.04871 -0.0680765 0.0 
				1.04157 -0.101869 0.0 
				1.07735 -0.0457108 0.0 
				1.08608 -0.0805495 0.0 
				1.09341 -0.013046 0.0 
				1.11829 -0.0424795 0.0 
				1.09218 0.0233053 0.0 
				1.12952 0.0060395 0.0 
				1.0739 0.0550776 0.0 
				1.11617 0.0542464 0.0 
				1.04366 0.0758812 0.0 
				1.08208 0.0913496 0.0 
				1.00864 0.0831358 0.0 
				1.03629 0.110936 0.0 
				0.975248 0.0776574 0.0 
				0.988546 0.112008 0.0 
				0.947908 0.0621276 0.0 
				0.946314 0.0972622 0.0 
				0.929017 0.0397674 0.0 
				0.914163 0.0708949 0.0 
				0.919288 0.0137734 0.0 
				0.894358 0.0372517 0.0 
				0.919288 -0.0137724 0.0 
				0.88698 6.36515e-07 0.0 
				0.929017 -0.0397663 0.0 
				0.894357 -0.0372504 0.0 
				0.947907 -0.0621266 0.0 
				0.914162 -0.0708937 0.0 
				0.975247 -0.0776564 0.0 
				0.946313 -0.097261 0.0 
				1.00863 -0.083135 0.0 
				0.988545 -0.112007 0.0 
				1.04366 -0.0758806 0.0 
				1.03629 -0.110935 0.0 
				1.0739 -0.0550771 0.0 
				1.08207 -0.091349 0.0 
				1.09218 -0.0233052 0.0 
				1.11616 -0.0542461 0.0 
				1.09341 0.0130457 0.0 
				1.12952 -0.00603959 0.0 
				1.07735 0.0457102 0.0 
				1.11828 0.042479 0.0 
				1.04871 0.0680756 0.0 
				1.08607 0.0805487 0.0 
				1.01422 0.0773643 0.0 
				1.04157 0.101868 0.0 
				0.979737 0.0742611 0.0 
				0.993924 0.10544 0.0 
				0.949721 0.0611557 0.0 
				0.950475 0.0935733 0.0 
				0.92921 0.0403661 0.0 
				0.916962 0.0699847 0.0 
				0.882696 0.0202852 0.0 
				0.897328 0.0389089 0.0 
				0.931194 -0.0060894 0.0 
				0.933913 -4.04915e-07 0.0 
				0.963737 -0.0201034 0.0 
				0.965334 -0.00945058 0.0 
				0.974687 -0.0304983 0.0 
				0.977385 -0.0178775 0.0 
				0.990795 -0.0371278 0.0 
				0.988463 -0.0239466 0.0 
				1.0083 -0.0386499 0.0 
				1.00043 -0.0269437 0.0 
				1.0256 -0.0338439 0.0 
				1.01279 -0.0258377 0.0 
				1.03983 -0.0224023 0.0 
				1.02409 -0.0199784 0.0 
				1.04764 -0.00581352 0.0 
				1.032 -0.00979295 0.0 
				1.04674 0.0125737 0.0 
				1.0344 0.00292876 0.0 
				1.0373 0.0286375 0.0 
				1.03048 0.0154025 0.0 
				1.02183 0.0391501 0.0 
				1.02129 0.0249253 0.0 
				1.00392 0.0427477 0.0 
				1.00909 0.029855 0.0 
				0.986866 0.039826 0.0 
				0.99644 0.0299123 0.0 
				0.972932 0.0317935 0.0 
				0.985311 0.0258172 0.0 
				0.963298 0.0203358 0.0 
				0.976909 0.0187213 0.0 
				0.958403 0.00699288 0.0 
				0.971771 0.00979036 0.0 
				0.958402 -0.00699211 0.0 
				0.970043 3.23649e-07 0.0 
				0.963297 -0.0203351 0.0 
				0.971771 -0.00978973 0.0 
				0.972931 -0.0317927 0.0 
				0.976909 -0.0187207 0.0 
				0.986865 -0.0398254 0.0 
				0.985311 -0.0258166 0.0 
				1.00392 -0.0427471 0.0 
				0.996439 -0.0299118 0.0 
				1.02183 -0.0391497 0.0 
				1.00909 -0.0298546 0.0 
				1.0373 -0.0286372 0.0 
				1.02129 -0.024925 0.0 
				1.04674 -0.0125736 0.0 
				1.03048 -0.0154024 0.0 
				1.04764 0.00581337 0.0 
				1.0344 -0.00292884 0.0 
				1.03983 0.0224019 0.0 
				1.032 0.00979269 0.0 
				1.0256 0.0338433 0.0 
				1.02409 0.0199779 0.0 
				1.0083 0.0386492 0.0 
				1.01279 0.0258371 0.0 
				0.990795 0.0371271 0.0 
				1.00043 0.026943 0.0 
				0.974687 0.0304974 0.0 
				0.988463 0.0239459 0.0 
				0.963737 0.0201026 0.0 
				0.977385 0.0178768 0.0 
				0.931193 0.00608855 0.0 
				0.965334 0.00944987 0.0 
				0.975627 -0.00351869 0.0 
				0.949697 -2.94418e-07 0.0 
				0.992021 -0.00484157 0.0 
				0.9871 -0.00493851 0.0 
				0.996108 -0.00722274 0.0 
				0.990191 -0.00913758 0.0 
				0.999672 -0.00867516 0.0 
				0.996156 -0.0117047 0.0 
				1.00345 -0.0089069 0.0 
				1.00159 -0.0129893 0.0 
				1.00726 -0.00761962 0.0 
				1.00728 -0.0123322 0.0 
				1.01035 -0.00479337 0.0 
				1.01252 -0.00941282 0.0 
				1.01194 -0.000810926 0.0 
				1.01613 -0.00444119 0.0 
				1.01149 0.00353608 0.0 
				1.01709 0.00172466 0.0 
				1.00906 0.00729964 0.0 
				1.01504 0.00776087 0.0 
				1.00523 0.00972828 0.0 
				1.01044 0.0123576 0.0 
				1.00086 0.0105037 0.0 
				1.00442 0.0147125 0.0 
				0.99672 0.00972557 0.0 
				0.998205 0.0146903 0.0 
				0.993364 0.00773412 0.0 
				0.99277 0.012648 0.0 
				0.991068 0.0049312 0.0 
				0.988697 0.00915257 0.0 
				0.989902 0.00169104 0.0 
				0.986221 0.00477409 0.0 
				0.989902 -0.00169069 0.0 
				0.985404 2.19203e-07 0.0 
				0.991068 -0.00493086 0.0 
				0.986221 -0.00477366 0.0 
				0.993363 -0.00773381 0.0 
				0.988697 -0.00915215 0.0 
				0.99672 -0.00972529 0.0 
				0.992769 -0.0126476 0.0 
				1.00085 -0.0105035 0.0 
				0.998204 -0.0146899 0.0 
				1.00523 -0.00972812 0.0 
				1.00442 -0.0147122 0.0 
				1.00906 -0.00729958 0.0 
				1.01044 -0.0123574 0.0 
				1.01149 -0.00353612 0.0 
				1.01504 -0.00776082 0.0 
				1.01194 0.000810781 0.0 
				1.01709 -0.00172474 0.0 
				1.01035 0.00479313 0.0 
				1.01613 0.00444098 0.0 
				1.00726 0.0076193 0.0 
				1.01252 0.0094125 0.0 
				1.00345 0.00890653 0.0 
				1.00728 0.0123318 0.0 
				0.999672 0.00867472 0.0 