<VTKFile type="UnstructuredGrid" version="0.1" byte_order="LittleEndian">
<UnstructuredGrid>
	<Piece NumberOfPoints="80" NumberOfCells="128">
		<CellData Scalars="density" Vectors="velocity">
			<DataArray type="Float64" Name="density" Format="ascii">
				1.00897
				1.00366
				0.984838
				0.998904
				0.90642
				0.967118
				0.82653
				0.906349
				0.835215
				0.884762
				0.927821
				0.932133
				1.01837
				0.998376
				1.06124
				1.04772
				1.06124
				1.0648
				1.01837
				1.04772
				0.927822
				0.998376
				0.835216
				0.932134
				0.826531
				0.884762
				0.906421
				0.90635
				0.984838
				0.967119
				1.00897
				0.998904
				0.999731
				0.998723
				1.00192
				1.01342
				0.99218
				0.996566
				0.983823
				0.975328
				0.98526
				0.964226
				0.996013
				0.975761
				1.00819
				0.998581
				1.0151
				1.0169
				1.0151
				1.02337
				1.00819
				1.0169
				0.996013
				0.998581
				0.98526
				0.975761
				0.983823
				0.964226
				0.992181
				0.975328
				1.00192
				0.996567
				0.999731
				1.01342
				0.998417
				0.998374
				1.00121
				0.999587
				0.997855
				0.999746
				0.995855
				0.99875
				0.996702
				0.998405
				0.999726
				0.99943
				1.00281
				1.00104
				1.00447
				1.00224
				1.00447
				1.00267
				1.00281
				1.00224
				0.999726
				1.00104
				0.996702
				0.99943
				0.995855
				0.998405
				0.997855
				0.99875
				1.00121
				0.999746
				0.998417
				0.999587
				0.998367
				0.995284
				0.999671
				1.00055
				0.999791
				0.999466
				0.999868
				0.999482
				1.00007
				0.999671
				1.00035
				1.0001
				1.00057
				1.00056
				1.00069
				1.00087
				1.00069
				1.00099
				1.00057
				1.00087
				1.00035
				1.00056
				1.00007
				1.0001
				0.999868
				0.999671
				0.999791
				0.999482
				0.999671
				0.999466
				0.998367
				1.00055
			</DataArray>
			<DataArray type="Float64" Name="mach-number" Format="ascii">
				0.121148
				0.110564
				0.327751
				0.255022
				0.538695
				0.421909
				0.709849
				0.566994
				0.705421
				0.61885
				0.537826
				0.544165
				0.330066
				0.406203
				0.131918
				0.259588
				0.131917
				0.153559
				0.330065
				0.259587
				0.537825
				0.406202
				0.70542
				0.544165
				0.709847
				0.618849
				0.538694
				0.566993
				0.32775
				0.421908
				0.121147
				0.255021
				0.309991
				0.198128
				0.366863
				0.334736
				0.396589
				0.383252
				0.422516
				0.434373
				0.422359
				0.460434
				0.394983
				0.435881
				0.361658
				0.379083
				0.337588
				0.324969
				0.337588
				0.271808
				0.361658
				0.324969
				0.394982
				0.379082
				0.422358
				0.435881
				0.422516
				0.460433
				0.396589
				0.434373
				0.366863
				0.383251
				0.309991
				0.334736
				0.353844
				0.350935
				0.376663
				0.374284
				0.384415
				0.380541
				0.390632
				0.384557
				0.388967
				0.385212
				0.381099
				0.382063
				0.373025
				0.377628
				0.369486
				0.374645
				0.369486
				0.373219
				0.373025
				0.374645
				0.381099
				0.377628
				0.388966
				0.382062
				0.390632
				0.385212
				0.384415
				0.384557
				0.376663
				0.380541
				0.353844
				0.374284
				0.376039
				0.356147
				0.381372
				0.383529
				0.381421
				0.381867
				0.381112
				0.382107
				0.380527
				0.381552
				0.3798
				0.380419
				0.3792
				0.379198
				0.378857
				0.378412
				0.378857
				0.378023
				0.3792
				0.378412
				0.3798
				0.379197
				0.380527
				0.380419
				0.381112
				0.381552
				0.381421
				0.382107
				0.381372
				0.381867
				0.376039
				0.383529
			</DataArray>
			<DataArray type="Float64" Name="pressure" Format="ascii">
				5.15548
				5.10749
				4.89923
				5.02405
				4.355
				4.75199
				3.81129
				4.33686
				3.84862
				4.19671
				4.4419
				4.50161
				5.05566
				4.94418
				5.36618
				5.28238
				5.36618
				5.41153
				5.05566
				5.28238
				4.4419
				4.94418
				3.84862
				4.50161
				3.8113
				4.19671
				4.355
				4.33686
				4.89923
				4.75199
				5.15548
				5.02405
				5.00306
				5.08192
				4.96888
				5.05049
				4.89609
				4.9315
				4.83552
				4.78485
				4.84484
				4.70788
				4.91971
				4.78307
				5.00359
				4.93748
				5.05215
				5.06359
				5.05216
				5.12235
				5.00359
				5.06359
				4.91971
				4.93748
				4.84484
				4.78307
				4.83552
				4.70788
				4.89609
				4.78485
				4.96888
				4.9315
				5.00306
				5.05049
				4.96278
				4.9603
				4.95423
				4.94925
				4.93193
				4.94475
				4.91792
				4.93766
				4.92379
				4.9354
				4.94472
				4.94252
				4.96601
				4.95368
				4.97746
				4.96202
				4.97746
				4.96507
				4.96601
				4.96202
				4.94472
				4.95368
				4.92379
				4.94252
				4.91793
				4.9354
				4.93193
				4.93766
				4.95423
				4.94475
				4.96278
				4.94925
				4.94272
				4.94523
				4.94437
				4.94621
				4.94512
				4.94282
				4.94568
				4.94295
				4.9471
				4.94429
				4.94899
				4.94723
				4.95054
				4.95048
				4.95134
				4.9526
				4.95134
				4.95341
				4.95054
				4.9526
				4.94899
				4.95048
				4.9471
				4.94723
				4.94568
				4.94429
				4.94512
				4.94295
				4.94437
				4.94282
				4.94272
				4.94621
			</DataArray>
			<DataArray type="Float64" Name="velocity" NumberOfComponents="3" Format="ascii">
				0.299657 -0.123275 0.0 
				0.295112 -1.52086e-06 0.0 
				0.719667 -0.479804 0.0 
				0.632744 -0.239956 0.0 
				1.2871 -0.543466 0.0 
				1.02638 -0.41359 0.0 
				1.79232 -0.20125 0.0 
				1.42621 -0.345713 0.0 
				1.74987 0.384919 0.0 
				1.59473 0.00677182 0.0 
				1.20469 0.698175 0.0 
				1.36481 0.373315 0.0 
				0.635286 0.594638 0.0 
				0.959267 0.473047 0.0 
				0.276559 0.21612 0.0 
				0.622955 0.295918 0.0 
				0.276559 -0.216119 0.0 
				0.409604 7.65377e-07 0.0 
				0.635285 -0.594636 0.0 
				0.622955 -0.295916 0.0 
				1.20469 -0.698174 0.0 
				0.959266 -0.473046 0.0 
				1.74986 -0.384918 0.0 
				1.36481 -0.373314 0.0 
				1.79232 0.201249 0.0 
				1.59473 -0.00677206 0.0 
				1.28709 0.543465 0.0 
				1.42621 0.345711 0.0 
				0.719666 0.479802 0.0 
				1.02638 0.413588 0.0 
				0.299657 0.123272 0.0 
				0.632743 0.239953 0.0 
				0.818435 -0.0584644 0.0 
				0.528813 -3.41382e-07 0.0 
				0.962748 -0.0870138 0.0 
				0.877064 -0.111905 0.0 
				1.03865 -0.0883792 0.0 
				0.996704 -0.155444 0.0 
				1.10802 -0.0263841 0.0 
				1.13215 -0.118915 0.0 
				1.10618 0.0665236 0.0 
				1.20364 0.0194672 0.0 
				1.03206 0.117072 0.0 
				1.13012 0.163373 0.0 
				0.947666 0.103537 0.0 
				0.976779 0.201648 0.0 
				0.889934 0.0459378 0.0 
				0.847178 0.135945 0.0 
				0.889934 -0.0459371 0.0 
				0.719525 4.82934e-07 0.0 
				0.947665 -0.103536 0.0 
				0.847178 -0.135944 0.0 
				1.03205 -0.117071 0.0 
				0.976778 -0.201647 0.0 
				1.10618 -0.0665234 0.0 
				1.13011 -0.163372 0.0 
				1.10802 0.0263837 0.0 
				1.20364 -0.0194672 0.0 
				1.03865 0.0883784 0.0 
				1.13215 0.118914 0.0 
				0.962748 0.0870129 0.0 
				0.996703 0.155443 0.0 
				0.818434 0.0584637 0.0 
				0.877063 0.111904 0.0 
				0.933421 -0.00444792 0.0 
				0.925546 -2.72056e-07 0.0 
				0.991246 -0.0166927 0.0 
				0.985422 -0.00299841 0.0 
				1.01106 -0.0169117 0.0 
				1.00135 -0.0056226 0.0 
				1.02713 -0.000362757 0.0 
				1.01171 -0.000830014 0.0 
				1.02271 0.0210403 0.0 
				1.01334 0.00847252 0.0 
				1.00238 0.0305576 0.0 
				1.00519 0.0152406 0.0 
				0.981893 0.0243551 0.0 
				0.993846 0.0148013 0.0 
				0.973149 0.00871713 0.0 
				0.986307 0.0081049 0.0 
				0.973149 -0.00871674 0.0 
				0.982679 1.35467e-07 0.0 
				0.981892 -0.0243547 0.0 
				0.986306 -0.00810464 0.0 
				1.00238 -0.0305574 0.0 
				0.993846 -0.0148011 0.0 
				1.02271 -0.0210402 0.0 
				1.00519 -0.0152405 0.0 
				1.02713 0.000362621 0.0 
				1.01334 -0.00847256 0.0 
				1.01106 0.0169113 0.0 
				1.01171 0.00082982 0.0 
				0.991246 0.0166922 0.0 
				1.00135 0.0056223 0.0 
				0.93342 0.00444744 0.0 
				0.985422 0.00299805 0.0 
				0.98999 -0.00420224 0.0 
				0.93932 -8.3628e-08 0.0 
				1.00355 -0.00197576 0.0 
				1.00897 -0.00188967 0.0 
				1.0037 -0.00053143 0.0 
				1.0048 -0.00148899 0.0 
				1.0029 0.000963408 0.0 
				1.00544 0.00102808 0.0 
				1.0014 0.0021671 0.0 
				1.00401 0.00323144 0.0 
				0.99954 0.00249949 0.0 
				1.00111 0.00453683 0.0 
				0.998008 0.00186894 0.0 
				0.997992 0.0041016 0.0 
				0.997128 0.00072717 0.0 
				0.995993 0.00230196 0.0 
				0.997128 -0.000727106 0.0 
				0.994995 5.58847e-08 0.0 
				0.998008 -0.00186889 0.0 
				0.995992 -0.00230185 0.0 
				0.99954 -0.00249947 0.0 
				0.997992 -0.00410152 0.0 
				1.0014 -0.00216713 0.0 
				1.00111 -0.0045368 0.0 
				1.0029 -0.00096349 0.0 
				1.00401 -0.00323148 0.0 
				1.0037 0.00053131 0.0 
				1.00544 -0.00102819 0.0 
				1.00355 0.00197562 0.0 
				1.0048 0.00148883 0.0 
				0.98999 0.0042021 0.0 
				1.00897 0.00188949 0.0 
			</DataArray>
		</CellData>
		<Points>
		<DataArray type="Float64" NumberOfComponents="3" Format="ascii">
			0.5 0 0.0 
			0.46194 0.191342 0.0 
			0.353553 0.353553 0.0 
			0.191342 0.46194 0.0 
			-2.18557e-08 0.5 0.0 
			-0.191342 0.46194 0.0 
			-0.353553 0.353553 0.0 
			-0.46194 0.191342 0.0 
			-0.5 -4.37114e-08 0.0 
			-0.46194 -0.191342 0.0 
			-0.353553 -0.353553 0.0 
			-0.191342 -0.46194 0.0 
			6.55671e-08 -0.5 0.0 
			0.191342 -0.46194 0.0 
			0.353553 -0.353553 0.0 
			0.46194 -0.191342 0.0 
			0.884503 0.175939 0.0 
			0.749846 0.501031 0.0 
			0.501031 0.749846 0.0 
			0.175939 0.884503 0.0 
			-0.175939 0.884503 0.0 
			-0.501031 0.749846 0.0 
			-0.749846 0.501031 0.0 
			-0.884503 0.175939 0.0 
			-0.884503 -0.175939 0.0 
			-0.749846 -0.501031 0.0 
			-0.501031 -0.749846 0.0 
			-0.175939 -0.884503 0.0 
			0.175939 -0.884503 0.0 
			0.501031 -0.749846 0.0 
			0.749846 -0.501031 0.0 
			0.884503 -0.175938 0.0 
			2.20148 0 0.0 
			2.0339 0.842468 0.0 
			1.55668 1.55668 0.0 
			0.842468 2.0339 0.0 
			-9.62295e-08 2.20148 0.0 
			-0.842468 2.0339 0.0 
			-1.55668 1.55668 0.0 
			-2.0339 0.842468 0.0 
			-2.20148 -1.92459e-07 0.0 
			-2.0339 -0.842468 0.0 
			-1.55668 -1.55668 0.0 
			-0.842468 -2.0339 0.0 
			2.88689e-07 -2.20148 0.0 
			0.842468 -2.0339 0.0 
			1.55668 -1.55668 0.0 
			2.0339 -0.842468 0.0 
			6.28184 1.24954 0.0 
			5.32549 3.55838 0.0 
			3.55838 5.32549 0.0 
			1.24954 6.28184 0.0 
			-1.24954 6.28184 0.0 
			-3.55838 5.32549 0.0 
			-5.32549 3.55838 0.0 
			-6.28184 1.24954 0.0 
			-6.28184 -1.24954 0.0 
			-5.32549 -3.55838 0.0 
			-3.55838 -5.32549 0.0 
			-1.24954 -6.28184 0.0 
			1.24954 -6.28184 0.0 
			3.55838 -5.32549 0.0 
			5.32549 -3.55838 0.0 
			6.28184 -1.24953 0.0 
			20.0001 0 0.0 
			18.4777 7.6537 0.0 
			14.1422 14.1422 0.0 
			7.6537 18.4777 0.0 
			-8.74231e-07 20.0001 0.0 
			-7.6537 18.4777 0.0 
			-14.1422 14.1422 0.0 
			-18.4777 7.65369 0.0 
			-20.0001 -1.74846e-06 0.0 
			-18.4777 -7.6537 0.0 
			-14.1422 -14.1422 0.0 
			-7.65369 -18.4777 0.0 
			2.62269e-06 -20.0001 0.0 
			7.6537 -18.4777 0.0 
			14.1422 -14.1422 0.0 
			18.4777 -7.65369 0.0 
		</DataArray>
		</Points>
		<Cells>
			<DataArray type="UInt32" Name="connectivity" Format="ascii">
				0 16 1 
				0 31 16 
				1 17 2 
				1 16 17 
				2 18 3 
				2 17 18 
				3 19 4 
				3 18 19 
				4 20 5 
				4 19 20 
				5 21 6 
				5 20 21 
				6 22 7 
				6 21 22 
				7 23 8 
				7 22 23 
				8 24 9 
				8 23 24 
				9 25 10 
				9 24 25 
				10 26 11 
				10 25 26 
				11 27 12 
				11 26 27 
				12 28 13 
				12 27 28 
				13 29 14 
				13 28 29 
				14 30 15 
				14 29 30 
				15 31 0 
				15 30 31 
				16 32 33 
				16 31 32 
				17 33 34 
				17 16 33 
				18 34 35 
				18 17 34 
				19 35 36 
				19 18 35 
				20 36 37 
				20 19 36 
				21 37 38 
				21 20 37 
				22 38 39 
				22 21 38 
				23 39 40 
				23 22 39 
				24 40 41 
				24 23 40 
				25 41 42 
				25 24 41 
				26 42 43 
				26 25 42 
				27 43 44 
				27 26 43 
				28 44 45 
				28 27 44 
				29 45 46 
				29 28 45 
				30 46 47 
				30 29 46 
				31 47 32 
				31 30 47 
				32 48 33 
				32 63 48 
				33 49 34 
				33 48 49 
				34 50 35 
				34 49 50 
				35 51 36 
				35 50 51 
				36 52 37 
				36 51 52 
				37 53 38 
				37 52 53 
				38 54 39 
				38 53 54 
				39 55 40 
				39 54 55 
				40 56 41 
				40 55 56 
				41 57 42 
				41 56 57 
				42 58 43 
				42 57 58 
				43 59 44 
				43 58 59 
				44 60 45 
				44 59 60 
				45 61 46 
				45 60 61 
				46 62 47 
				46 61 62 
				47 63 32 
				47 62 63 
				48 64 65 
				48 63 64 
				49 65 66 
				49 48 65 
				50 66 67 
				50 49 66 
				51 67 68 
				51 50 67 
				52 68 69 
				52 51 68 
				53 69 70 
				53 52 69 
				54 70 71 
				54 53 70 
				55 71 72 
				55 54 71 
				56 72 73 
				56 55 72 
				57 73 74 
				57 56 73 
				58 74 75 
				58 57 74 
				59 75 76 
				59 58 75 
				60 76 77 
				60 59 76 
				61 77 78 
				61 60 77 
				62 78 79 
				62 61 78 
				63 79 64 
				63 62 79 
			</DataArray>
			<DataArray type="UInt32" Name="offsets" Format="ascii">
				3
				6
				9
				12
				15
				18
				21
				24
				27
				30
				33
				36
				39
				42
				45
				48
				51
				54
				57
				60
				63
				66
				69
				72
				75
				78
				81
				84
				87
				90
				93
				96
				99
				102
				105
				108
				111
				114
				117
				120
				123
				126
				129
				132
				135
				138
				141
				144
				147
				150
				153
				156
				159
				162
				165
				168
				171
				174
				177
				180
				183
				186
				189
				192
				195
				198
				201
				204
				207
				210
				213
				216
				219
				222
				225
				228
				231
				234
				237
				240
				243
				246
				249
				252
				255
				258
				261
				264
				267
				270
				273
				276
				279
				282
				285
				288
				291
				294
				297
				300
				303
				306
				309
				312
				315
				318
				321
				324
				327
				330
				333
				336
				339
				342
				345
				348
				351
				354
				357
				360
				363
				366
				369
				372
				375
				378
				381
				384
			</DataArray>
			<DataArray type="Int32" Name="types" Format="ascii">
				5
				5
				5
				5
				5
				5
				5
				5
				5
				5
				5
				5
				5
				5
				5
				5
				5
				5
				5
				5
				5
				5
				5
				5
				5
				5
				5
				5
				5
				5
				5
				5
				5
				5
				5
				5
				5
				5
				5
				5
				5
				5
				5
				5
				5
				5
				5
				5
				5
				5
				5
				5
				5
				5
				5
				5
				5
				5
				5
				5
				5
				5
				5
				5
				5
				5
				5
				5
				5
				5
				5
				5
				5
				5
				5
				5
				5
				5
				5
				5
				5
				5
				5
				5
				5
				5
				5
				5
				5
				5
				5
				5
				5
				5
				5
				5
				5
				5
				5
				5
				5
				5
				5
				5
				5
				5
				5
				5
				5
				5
				5
				5
				5
				5
				5
				5
				5
				5
				5
				5
				5
				5
				5
				5
				5
				5
				5
				5
			</DataArray>
		</Cells>
	</Piece>
</UnstructuredGrid>
</VTKFile>