<VTKFile type="UnstructuredGrid" version="0.1" byte_order="LittleEndian">
<UnstructuredGrid>
	<Piece NumberOfPoints="34" NumberOfCells="43">
		<PointData Scalars="density" Vectors="velocity">
			<DataArray type="Float64" Name="density" Format="ascii">
				-nan
				-nan
				-nan
				-nan
				-nan
				-nan
				-nan
				-nan
				-nan
				-nan
				-nan
				-nan
				-nan
				-nan
				-nan
				-nan
				-nan
				-nan
				-nan
				-nan
				-nan
				-nan
				-nan
				-nan
				-nan
				-nan
				-nan
				-nan
				-nan
				-nan
				-nan
				-nan
				-nan
				-nan
			</DataArray>
			<DataArray type="Float64" Name="mach-number" Format="ascii">
				-nan
				-nan
				-nan
				-nan
				-nan
				-nan
				-nan
				-nan
				-nan
				-nan
				-nan
				-nan
				-nan
				-nan
				-nan
				-nan
				-nan
				-nan
				-nan
				-nan
				-nan
				-nan
				-nan
				-nan
				-nan
				-nan
				-nan
				-nan
				-nan
				-nan
				-nan
				-nan
				-nan
				-nan
			</DataArray>
			<DataArray type="Float64" Name="pressure" Format="ascii">
				-nan
				-nan
				-nan
				-nan
				-nan
				-nan
				-nan
				-nan
				-nan
				-nan
				-nan
				-nan
				-nan
				-nan
				-nan
				-nan
				-nan
				-nan
				-nan
				-nan
				-nan
				-nan
				-nan
				-nan
				-nan
				-nan
				-nan
				-nan
				-nan
				-nan
				-nan
				-nan
				-nan
				-nan
			</DataArray>
			<DataArray type="Float64" Name="velocity" NumberOfComponents="3" Format="ascii">
				-nan -nan 0.0 
				-nan -nan 0.0 
				-nan -nan 0.0 
				-nan -nan 0.0 
				-nan -nan 0.0 
				-nan -nan 0.0 
				-nan -nan 0.0 
				-nan -nan 0.0 
				-nan -nan 0.0 
				-nan -nan 0.0 
				-nan -nan 0.0 
				-nan -nan 0.0 
				-nan -nan 0.0 
				-nan -nan 0.0 
				-nan -nan 0.0 
				-nan -nan 0.0 
				-nan -nan 0.0 
				-nan -nan 0.0 
				-nan -nan 0.0 
				-nan -nan 0.0 
				-nan -nan 0.0 
				-nan -nan 0.0 
				-nan -nan 0.0 
				-nan -nan 0.0 
				-nan -nan 0.0 
				-nan -nan 0.0 
				-nan -nan 0.0 
				-nan -nan 0.0 
				-nan -nan 0.0 
				-nan -nan 0.0 
				-nan -nan 0.0 
				-nan -nan 0.0 
				-nan -nan 0.0 
				-nan -nan 0.0 
			</DataArray>
		</PointData>
		<Points>
		<DataArray type="Float64" NumberOfComponents="3" Format="ascii">
			1 0 0.0 
			1.384 0 0.0 
			0 1.384 0.0 
			0 1 0.0 
			1.192 0 0.0 
			1.36991 0.196964 0.0 
			1.32794 0.389918 0.0 
			1.25893 0.574934 0.0 
			1.16429 0.748247 0.0 
			1.04596 0.906327 0.0 
			0.906327 1.04596 0.0 
			0.748247 1.16429 0.0 
			0.574934 1.25893 0.0 
			0.389918 1.32794 0.0 
			0.196964 1.36991 0.0 
			0 1.192 0.0 
			0.19509 0.980785 0.0 
			0.382683 0.92388 0.0 
			0.55557 0.83147 0.0 
			0.707107 0.707107 0.0 
			0.83147 0.55557 0.0 
			0.92388 0.382683 0.0 
			0.980785 0.19509 0.0 
			1.04145 0.581131 0.0 
			0.581131 1.04145 0.0 
			0.73251 0.947826 0.0 
			0.947826 0.73251 0.0 
			0.324537 1.11702 0.0 
			1.11702 0.324537 0.0 
			1.19443 0.170373 0.0 
			0.170373 1.19443 0.0 
			0.882017 0.882017 0.0 
			0.470556 1.15242 0.0 
			1.15242 0.470556 0.0 
		</DataArray>
		</Points>
		<Cells>
			<DataArray type="UInt32" Name="connectivity" Format="ascii">
				8 26 23 
				11 24 25 
				0 29 22 
				3 16 30 
				26 31 19 
				31 25 19 
				0 4 29 
				3 30 15 
				1 29 4 
				2 15 30 
				1 5 29 
				2 30 14 
				8 9 26 
				10 11 25 
				13 30 27 
				6 28 29 
				27 17 32 
				28 33 21 
				32 17 24 
				33 23 21 
				13 14 30 
				5 6 29 
				20 23 26 
				18 25 24 
				11 12 24 
				7 8 23 
				20 21 23 
				17 18 24 
				18 19 25 
				19 20 26 
				16 17 27 
				21 22 28 
				16 27 30 
				22 29 28 
				7 23 33 
				12 32 24 
				6 33 28 
				13 27 32 
				10 25 31 
				9 31 26 
				6 7 33 
				12 13 32 
				9 10 31 
			</DataArray>
			<DataArray type="UInt32" Name="offsets" Format="ascii">
				3
				6
				9
				12
				15
				18
				21
				24
				27
				30
				33
				36
				39
				42
				45
				48
				51
				54
				57
				60
				63
				66
				69
				72
				75
				78
				81
				84
				87
				90
				93
				96
				99
				102
				105
				108
				111
				114
				117
				120
				123
				126
				129
			</DataArray>
			<DataArray type="Int32" Name="types" Format="ascii">
				5
				5
				5
				5
				5
				5
				5
				5
				5
				5
				5
				5
				5
				5
				5
				5
				5
				5
				5
				5
				5
				5
				5
				5
				5
				5
				5
				5
				5
				5
				5
				5
				5
				5
				5
				5
				5
				5
				5
				5
				5
				5
				5
			</DataArray>
		</Cells>
	</Piece>
</UnstructuredGrid>
</VTKFile>