<VTKFile type="UnstructuredGrid" version="0.1" byte_order="LittleEndian">
<UnstructuredGrid>
	<Piece NumberOfPoints="24714" NumberOfCells="48702">
		<PointData Scalars="density" Vectors="velocity">
			<DataArray type="Float64" Name="density" Format="ascii">
				0.251263
				0.669465
				0.668403
				0.253386
				0.259183
				0.265731
				0.272977
				0.281355
				0.290119
				0.297564
				0.305456
				0.311741
				0.32079
				0.327549
				0.335938
				0.343547
				0.351123
				0.357532
				0.36658
				0.373783
				0.382056
				0.389852
				0.396283
				0.402025
				0.410149
				0.419262
				0.425603
				0.432978
				0.440863
				0.446792
				0.452761
				0.459791
				0.468535
				0.4763
				0.483096
				0.488102
				0.495559
				0.502136
				0.507942
				0.516316
				0.522591
				0.528529
				0.535792
				0.54168
				0.547515
				0.555014
				0.561515
				0.566766
				0.573237
				0.579087
				0.585295
				0.591395
				0.597222
				0.60274
				0.609189
				0.613863
				0.620802
				0.626366
				0.632356
				0.638474
				0.643364
				0.6485
				0.654766
				0.659569
				0.665973
				0.669625
				0.669566
				0.670128
				0.669813
				0.668716
				0.670185
				0.670098
				0.669005
				0.669048
				0.668965
				0.66846
				0.668413
				0.669571
				0.668919
				0.667748
				0.669014
				0.669001
				0.669293
				0.669265
				0.668343
				0.669541
				0.668095
				0.667353
				0.668692
				0.669871
				0.669347
				0.66858
				0.67017
				0.669734
				0.669053
				0.669019
				0.670711
				0.670153
				0.668244
				0.668681
				0.670426
				0.669661
				0.66886
				0.669096
				0.669853
				0.669549
				0.667644
				0.668818
				0.668514
				0.668371
				0.668855
				0.670887
				0.671178
				0.669425
				0.668536
				0.668607
				0.668295
				0.668749
				0.670228
				0.669664
				0.668617
				0.669144
				0.668864
				0.669037
				0.668233
				0.667855
				0.668717
				0.671108
				0.669111
				0.668113
				0.668977
				0.667938
				0.66911
				0.66888
				0.669494
				0.669376
				0.668536
				0.669508
				0.669759
				0.669673
				0.668927
				0.668088
				0.668021
				0.669826
				0.66908
				0.668788
				0.669398
				0.66951
				0.668561
				0.669009
				0.668623
				0.669304
				0.669256
				0.669758
				0.669686
				0.668346
				0.668706
				0.668951
				0.668687
				0.668328
				0.66971
				0.66944
				0.667614
				0.667916
				0.667784
				0.668739
				0.669846
				0.669658
				0.668395
				0.669606
				0.668766
				0.66748
				0.667311
				0.668583
				0.669259
				0.669671
				0.669177
				0.668619
				0.670051
				0.669517
				0.670236
				0.670618
				0.670406
				0.669413
				0.667856
				0.669321
				0.669307
				0.667805
				0.667669
				0.668349
				0.668379
				0.667889
				0.66804
				0.670059
				0.669808
				0.670781
				0.66985
				0.6687
				0.670831
				0.669341
				0.66831
				0.66751
				0.669041
				0.670034
				0.668744
				0.667888
				0.669067
				0.669523
				0.669491
				0.668616
				0.66951
				0.669459
				0.66879
				0.66783
				0.667731
				0.66904
				0.668879
				0.669745
				0.670063
				0.669476
				0.668074
				0.667882
				0.668974
				0.669677
				0.67008
				0.670059
				0.668996
				0.668713
				0.669422
				0.668214
				0.667017
				0.668736
				0.669189
				0.669294
				0.668474
				0.667767
				0.669191
				0.668661
				0.669323
				0.66971
				0.669746
				0.66908
				0.668077
				0.670341
				0.670998
				0.669482
				0.668933
				0.669393
				0.669513
				0.668854
				0.668376
				0.66977
				0.669305
				0.669739
				0.668031
				0.666729
				0.669402
				0.669052
				0.668805
				0.668463
				0.66986
				0.670861
				0.670046
				0.668563
				0.667776
				0.667866
				0.669024
				0.668997
				0.670124
				0.670024
				0.669712
				0.668547
				0.668323
				0.669409
				0.668827
				0.669277
				0.669488
				0.669135
				0.667941
				0.667756
				0.66866
				0.669178
				0.669549
				0.669521
				0.668381
				0.668177
				0.669655
				0.669579
				0.668083
				0.668809
				0.669328
				0.669313
				0.669229
				0.669329
				0.668956
				0.667797
				0.668325
				0.669889
				0.669382
				0.668698
				0.66917
				0.670219
				0.668807
				0.669082
				0.668595
				0.667929
				0.670082
				0.669215
				0.6699
				0.669927
				0.669526
				0.66945
				0.669752
				0.66994
				0.66878
				0.670126
				0.668132
				0.668478
				0.668811
				0.668663
				0.668913
				0.669005
				0.668354
				0.668027
				0.669857
				0.668581
				0.669665
				0.66978
				0.668436
				0.66785
				0.668833
				0.669371
				0.669113
				0.668357
				0.668392
				0.668182
				0.668624
				0.669474
				0.669674
				0.6692
				0.6694
				0.667371
				0.669911
				0.669309
				0.668859
				0.668174
				0.667774
				0.668129
				0.670255
				0.670181
				0.667898
				0.668308
				0.669472
				0.668939
				0.667973
				0.668665
				0.669181
				0.669442
				0.669149
				0.668757
				0.66958
				0.668332
				0.668297
				0.668818
				0.669068
				0.669238
				0.668942
				0.668572
				0.668694
				0.669255
				0.670289
				0.669939
				0.668332
				0.668594
				0.667998
				0.667725
				0.668432
				0.668508
				0.669349
				0.669203
				0.668236
				0.669703
				0.670139
				0.668954
				0.66839
				0.668498
				0.668516
				0.668297
				0.668663
				0.669414
				0.66884
				0.670231
				0.669469
				0.668169
				0.669637
				0.669181
				0.668635
				0.668941
				0.668316
				0.669099
				0.670219
				0.669415
				0.667822
				0.66824
				0.668204
				0.669532
				0.668315
				0.668178
				0.669622
				0.668828
				0.668724
				0.669158
				0.665032
				0.659548
				0.654663
				0.648528
				0.643233
				0.638012
				0.632194
				0.625842
				0.620472
				0.614419
				0.609527
				0.60308
				0.59727
				0.590943
				0.585041
				0.579096
				0.57347
				0.566944
				0.561391
				0.554912
				0.547525
				0.54092
				0.535297
				0.528317
				0.521772
				0.515854
				0.508277
				0.502159
				0.495772
				0.488091
				0.482594
				0.47586
				0.468149
				0.459648
				0.452552
				0.447167
				0.441292
				0.432454
				0.424714
				0.418454
				0.410306
				0.402531
				0.395852
				0.389305
				0.381852
				0.373468
				0.366307
				0.358136
				0.351696
				0.343206
				0.335732
				0.327315
				0.32131
				0.311916
				0.30509
				0.296686
				0.289594
				0.281873
				0.2726
				0.265734
				0.259774
				0.254601
				0.253412
				0.253366
				0.251583
				0.25041
				0.252337
				0.25275
				0.25236
				0.253052
				0.252492
				0.250999
				0.250473
				0.252879
				0.253259
				0.253136
				0.252358
				0.252285
				0.252605
				0.253561
				0.252474
				0.251177
				0.252792
				0.253478
				0.252245
				0.250954
				0.250738
				0.252391
				0.251793
				0.253811
				0.253425
				0.25289
				0.252145
				0.252996
				0.251604
				0.25162
				0.253123
				0.253055
				0.253411
				0.251378
				0.249548
				0.250187
				0.252684
				0.252622
				0.250741
				0.253448
				0.253504
				0.253148
				0.253276
				0.252401
				0.25278
				0.252592
				0.252014
				0.252753
				0.253663
				0.251664
				0.250246
				0.251342
				0.2513
				0.250969
				0.251713
				0.253313
				0.252707
				0.251406
				0.251382
				0.251451
				0.251382
				0.253695
				0.254046
				0.253325
				0.252294
				0.251346
				0.250648
				0.251029
				0.25367
				0.253149
				0.252206
				0.251644
				0.252291
				0.250887
				0.251328
				0.25227
				0.252366
				0.25327
				0.252329
				0.251708
				0.251993
				0.252077
				0.252253
				0.252054
				0.250831
				0.251681
				0.251458
				0.253478
				0.252878
				0.25294
				0.251535
				0.252512
				0.25209
				0.251256
				0.251182
				0.251821
				0.252624
				0.251268
				0.252357
				0.252553
				0.25136
				0.251523
				0.252857
				0.252697
				0.253126
				0.252543
				0.251369
				0.251482
				0.2525
				0.252414
				0.252765
				0.25275
				0.251776
				0.251608
				0.252164
				0.250882
				0.251618
				0.253022
				0.25304
				0.252814
				0.253144
				0.251591
				0.25183
				0.25288
				0.251613
				0.252106
				0.252288
				0.251058
				0.252688
				0.252394
				0.253465
				0.252368
				0.252498
				0.250979
				0.251707
				0.25366
				0.251643
				0.252628
				0.25295
				0.251624
				0.253024
				0.254151
				0.252921
				0.251727
				0.252154
				0.251809
				0.252789
				0.252864
				0.252217
				0.252486
				0.252961
				0.252398
				0.252648
				0.253089
				0.252852
				0.253565
				0.252003
				0.249267
				0.25181
				0.252722
				0.252469
				0.25261
				0.253244
				0.251044
				0.249753
				0.250782
				0.252585
				0.251508
				0.25313
				0.252988
				0.252699
				0.252257
				0.252569
				0.252414
				0.252801
				0.252504
				0.251458
				0.251561
				0.253178
				0.251807
				0.251897
				0.251757
				0.252027
				0.252449
				0.252145
				0.252391
				0.252721
				0.251879
				0.250674
				0.252863
				0.253084
				0.252174
				0.251953
				0.252144
				0.251117
				0.252561
				0.252728
				0.251884
				0.25218
				0.250598
				0.250461
				0.251776
				0.253834
				0.253406
				0.251703
				0.251094
				0.252833
				0.253222
				0.252086
				0.25117
				0.25234
				0.251998
				0.250492
				0.252392
				0.251627
				0.252745
				0.252977
				0.252881
				0.251563
				0.25175
				0.251756
				0.251425
				0.252398
				0.252506
				0.252016
				0.251766
				0.251377
				0.251214
				0.251386
				0.251703
				0.250777
				0.251233
				0.253205
				0.25275
				0.253134
				0.253333
				0.251291
				0.251523
				0.252961
				0.252069
				0.252351
				0.251551
				0.250996
				0.253359
				0.252491
				0.252027
				0.482816
				0.480571
				0.481314
				0.481833
				0.481391
				0.481428
				0.497057
				0.515495
				0.515983
				0.515202
				0.556328
				0.397967
				0.39884
				0.397355
				0.397672
				0.396068
				0.396675
				0.394987
				0.394614
				0.39307
				0.563601
				0.562317
				0.563522
				0.563763
				0.386844
				0.387539
				0.571175
				0.569092
				0.568916
				0.571691
				0.570222
				0.569953
				0.581738
				0.365361
				0.364182
				0.585368
				0.363688
				0.587001
				0.588358
				0.360784
				0.355949
				0.591734
				0.477204
				0.476977
				0.354964
				0.352245
				0.595094
				0.594542
				0.596515
				0.485782
				0.484813
				0.48524
				0.486399
				0.487363
				0.488391
				0.598832
				0.598345
				0.48095
				0.481996
				0.479798
				0.342679
				0.341507
				0.342067
				0.438448
				0.438775
				0.439085
				0.60788
				0.607585
				0.607621
				0.610624
				0.610292
				0.610094
				0.610343
				0.609511
				0.613011
				0.502224
				0.427678
				0.329685
				0.330904
				0.328494
				0.331295
				0.329992
				0.330453
				0.331085
				0.614068
				0.613779
				0.329215
				0.615335
				0.547934
				0.538573
				0.42795
				0.424941
				0.326383
				0.326744
				0.425521
				0.427083
				0.426443
				0.614526
				0.425099
				0.425413
				0.325938
				0.507992
				0.423395
				0.423439
				0.536292
				0.535117
				0.535842
				0.42322
				0.534088
				0.453774
				0.617289
				0.542916
				0.543472
				0.450764
				0.416141
				0.415234
				0.519962
				0.323669
				0.528238
				0.617531
				0.541893
				0.323127
				0.618196
				0.619296
				0.61828
				0.420712
				0.536883
				0.319901
				0.620685
				0.6204
				0.554568
				0.554096
				0.553756
				0.32108
				0.548175
				0.547922
				0.548915
				0.52347
				0.524381
				0.623213
				0.622251
				0.476954
				0.625171
				0.314974
				0.408605
				0.537012
				0.55262
				0.512298
				0.626343
				0.627983
				0.311659
				0.442616
				0.628744
				0.399285
				0.627573
				0.627268
				0.309882
				0.311779
				0.311128
				0.628749
				0.47591
				0.477108
				0.475875
				0.627282
				0.447954
				0.311972
				0.309093
				0.307844
				0.308645
				0.309385
				0.520435
				0.542615
				0.568243
				0.630181
				0.629741
				0.630476
				0.305734
				0.479233
				0.480399
				0.479339
				0.502278
				0.571409
				0.566673
				0.567512
				0.504188
				0.490586
				0.490294
				0.501163
				0.567553
				0.632502
				0.30406
				0.305259
				0.390112
				0.392288
				0.392047
				0.523973
				0.574586
				0.574697
				0.370783
				0.633273
				0.633338
				0.632313
				0.377865
				0.577589
				0.519589
				0.443578
				0.443473
				0.444193
				0.374486
				0.37773
				0.366041
				0.557939
				0.559419
				0.559973
				0.471171
				0.580027
				0.633915
				0.302385
				0.37636
				0.373939
				0.376365
				0.530538
				0.532017
				0.376873
				0.377983
				0.496935
				0.634333
				0.634237
				0.634415
				0.376982
				0.532695
				0.635228
				0.440634
				0.440935
				0.439902
				0.473597
				0.37018
				0.370328
				0.375961
				0.433785
				0.576538
				0.529835
				0.634893
				0.633586
				0.44327
				0.527823
				0.530923
				0.300995
				0.634704
				0.635846
				0.494891
				0.525206
				0.492921
				0.301105
				0.469526
				0.514556
				0.437894
				0.492409
				0.636277
				0.579616
				0.580014
				0.573562
				0.635981
				0.578707
				0.436975
				0.35773
				0.468605
				0.356627
				0.358209
				0.582801
				0.583205
				0.583774
				0.523028
				0.297944
				0.371315
				0.412693
				0.297462
				0.461599
				0.581541
				0.431633
				0.432206
				0.432861
				0.592298
				0.635969
				0.575938
				0.574871
				0.297702
				0.470617
				0.41077
				0.515339
				0.355754
				0.356027
				0.46155
				0.450505
				0.449028
				0.29653
				0.521657
				0.638326
				0.575373
				0.408579
				0.457956
				0.353347
				0.35477
				0.297173
				0.29735
				0.295784
				0.295496
				0.364831
				0.638355
				0.295736
				0.296605
				0.295641
				0.638656
				0.294896
				0.510729
				0.510148
				0.466548
				0.516497
				0.517858
				0.395811
				0.393804
				0.396347
				0.345366
				0.639331
				0.592572
				0.592488
				0.592347
				0.397406
				0.600194
				0.597735
				0.597617
				0.510763
				0.347125
				0.515425
				0.596675
				0.404207
				0.598643
				0.55954
				0.640319
				0.639118
				0.639882
				0.588262
				0.583852
				0.535868
				0.379242
				0.379867
				0.512603
				0.639975
				0.639997
				0.587435
				0.595193
				0.538272
				0.443344
				0.48595
				0.442549
				0.640958
				0.640332
				0.640741
				0.445923
				0.641252
				0.641509
				0.294038
				0.601208
				0.640847
				0.445234
				0.487442
				0.442328
				0.292146
				0.603192
				0.422215
				0.542172
				0.640428
				0.542009
				0.642081
				0.642174
				0.424629
				0.517045
				0.293469
				0.293082
				0.516916
				0.440579
				0.641564
				0.51672
				0.291283
				0.603062
				0.603127
				0.29213
				0.480311
				0.291515
				0.461443
				0.602511
				0.60213
				0.541382
				0.356985
				0.338399
				0.601578
				0.413843
				0.393633
				0.460181
				0.44699
				0.338564
				0.418316
				0.478128
				0.357413
				0.605495
				0.555258
				0.291057
				0.290334
				0.447219
				0.337949
				0.642397
				0.362748
				0.361681
				0.503697
				0.447996
				0.514211
				0.36119
				0.395661
				0.60159
				0.591566
				0.554439
				0.642674
				0.589664
				0.544859
				0.59702
				0.337365
				0.607066
				0.360235
				0.52033
				0.520127
				0.342768
				0.28841
				0.601752
				0.555378
				0.643107
				0.418426
				0.342307
				0.290254
				0.333317
				0.33324
				0.577364
				0.404998
				0.406118
				0.342571
				0.407896
				0.458816
				0.429918
				0.339798
				0.288733
				0.534534
				0.360472
				0.359931
				0.472978
				0.474534
				0.473236
				0.289129
				0.553579
				0.531944
				0.560071
				0.341733
				0.404399
				0.455232
				0.422692
				0.423003
				0.422617
				0.405895
				0.643994
				0.45983
				0.501836
				0.5038
				0.570884
				0.570981
				0.412138
				0.402469
				0.402324
				0.287593
				0.28826
				0.606714
				0.483095
				0.643107
				0.644258
				0.449964
				0.456818
				0.412069
				0.643403
				0.6446
				0.644203
				0.643892
				0.546811
				0.60965
				0.462524
				0.28714
				0.57182
				0.571239
				0.288016
				0.334423
				0.328834
				0.285412
				0.506652
				0.533747
				0.338218
				0.510516
				0.645351
				0.287028
				0.549082
				0.604189
				0.451633
				0.599501
				0.60821
				0.608396
				0.609425
				0.545423
				0.40661
				0.463162
				0.464584
				0.462395
				0.549728
				0.342425
				0.497522
				0.424177
				0.285757
				0.549979
				0.510949
				0.54298
				0.53709
				0.53816
				0.536781
				0.606913
				0.54335
				0.53753
				0.537787
				0.537832
				0.609242
				0.569318
				0.569674
				0.570349
				0.565765
				0.549689
				0.550209
				0.582706
				0.584141
				0.491092
				0.495825
				0.645707
				0.646062
				0.408567
				0.587775
				0.325596
				0.645605
				0.644677
				0.285984
				0.605824
				0.605951
				0.564734
				0.546795
				0.284984
				0.645625
				0.554704
				0.354651
				0.556929
				0.460506
				0.613517
				0.373956
				0.607499
				0.516908
				0.510458
				0.5756
				0.508007
				0.457059
				0.525186
				0.49694
				0.378686
				0.396626
				0.645944
				0.646085
				0.646636
				0.646105
				0.646401
				0.544365
				0.464198
				0.282871
				0.392873
				0.646926
				0.498
				0.471542
				0.647156
				0.282021
				0.544302
				0.60995
				0.446279
				0.544498
				0.647538
				0.471198
				0.609129
				0.647583
				0.566415
				0.580428
				0.556714
				0.647864
				0.327108
				0.519593
				0.647312
				0.283837
				0.459842
				0.579935
				0.513992
				0.331073
				0.504723
				0.504509
				0.479746
				0.390505
				0.389365
				0.535197
				0.331912
				0.334373
				0.330981
				0.330603
				0.282348
				0.648984
				0.6489
				0.388992
				0.325234
				0.506597
				0.611491
				0.282955
				0.388079
				0.52851
				0.50687
				0.508327
				0.604009
				0.388645
				0.648093
				0.507839
				0.283754
				0.460438
				0.329703
				0.317095
				0.493854
				0.280321
				0.404833
				0.45131
				0.450492
				0.450745
				0.282467
				0.279571
				0.440828
				0.649038
				0.450762
				0.566486
				0.28161
				0.350787
				0.573421
				0.38776
				0.395021
				0.648998
				0.617584
				0.371058
				0.371658
				0.371326
				0.504357
				0.448995
				0.372326
				0.649108
				0.470908
				0.472392
				0.472004
				0.619207
				0.619018
				0.618988
				0.280596
				0.578142
				0.563621
				0.593883
				0.561665
				0.522705
				0.317486
				0.472005
				0.472104
				0.431158
				0.64944
				0.503184
				0.405019
				0.330187
				0.609011
				0.317814
				0.60356
				0.44814
				0.504237
				0.451567
				0.426551
				0.456993
				0.538033
				0.61647
				0.650108
				0.499398
				0.585959
				0.382748
				0.382009
				0.649333
				0.331072
				0.379977
				0.280165
				0.648687
				0.331674
				0.281787
				0.357957
				0.421919
				0.450719
				0.452833
				0.451109
				0.336877
				0.430198
				0.514174
				0.336237
				0.4452
				0.56032
				0.560224
				0.509019
				0.509943
				0.618853
				0.279697
				0.622888
				0.624062
				0.61322
				0.613249
				0.614098
				0.619422
				0.566581
				0.566961
				0.335603
				0.280682
				0.647922
				0.648828
				0.557529
				0.324789
				0.504067
				0.504496
				0.651611
				0.651049
				0.482163
				0.279534
				0.281351
				0.618033
				0.410747
				0.613694
				0.503905
				0.54297
				0.474424
				0.489618
				0.410366
				0.410687
				0.526795
				0.474504
				0.50115
				0.589995
				0.331786
				0.278572
				0.614466
				0.581017
				0.501114
				0.376797
				0.651852
				0.506852
				0.597732
				0.597501
				0.591179
				0.651319
				0.5383
				0.375299
				0.416456
				0.325645
				0.425352
				0.425108
				0.425497
				0.466629
				0.497281
				0.621406
				0.371597
				0.280195
				0.279705
				0.391938
				0.620627
				0.651029
				0.431194
				0.278013
				0.587064
				0.485559
				0.429893
				0.429535
				0.279027
				0.502069
				0.585975
				0.586705
				0.583262
				0.583329
				0.554748
				0.651204
				0.356876
				0.357452
				0.381584
				0.38233
				0.650066
				0.460238
				0.651025
				0.650748
				0.571476
				0.627104
				0.627072
				0.37308
				0.587507
				0.525947
				0.382729
				0.546063
				0.651303
				0.651747
				0.62228
				0.498795
				0.498686
				0.498114
				0.541508
				0.548733
				0.351222
				0.377749
				0.65219
				0.557503
				0.317494
				0.52568
				0.359682
				0.524887
				0.565108
				0.358305
				0.628774
				0.520313
				0.339359
				0.591938
				0.592306
				0.458786
				0.322289
				0.517472
				0.601155
				0.357789
				0.545647
				0.535421
				0.650633
				0.394708
				0.577593
				0.579899
				0.421752
				0.278264
				0.553201
				0.622372
				0.622212
				0.617185
				0.617872
				0.587935
				0.551019
				0.651059
				0.580347
				0.277548
				0.278234
				0.620059
				0.317034
				0.278874
				0.520839
				0.515827
				0.509921
				0.627975
				0.550704
				0.31825
				0.431129
				0.652291
				0.497707
				0.404351
				0.55742
				0.557653
				0.536149
				0.530202
				0.652744
				0.579275
				0.580065
				0.580092
				0.322727
				0.489832
				0.386397
				0.417992
				0.418062
				0.597998
				0.587246
				0.587029
				0.276749
				0.567441
				0.480204
				0.553413
				0.467806
				0.464941
				0.586118
				0.586985
				0.585424
				0.463957
				0.619465
				0.442783
				0.651828
				0.652137
				0.501984
				0.502697
				0.582033
				0.44776
				0.48627
				0.487065
				0.566661
				0.508203
				0.529764
				0.318398
				0.358473
				0.357035
				0.331696
				0.484231
				0.623691
				0.317528
				0.535205
				0.618392
				0.463833
				0.549399
				0.277088
				0.359134
				0.358913
				0.356344
				0.6518
				0.512776
				0.622308
				0.509657
				0.493209
				0.382662
				0.3555
				0.399139
				0.389572
				0.389794
				0.324526
				0.618542
				0.652417
				0.652245
				0.652212
				0.498696
				0.417949
				0.383789
				0.593238
				0.383888
				0.384321
				0.276492
				0.275803
				0.275934
				0.353499
				0.323213
				0.57178
				0.350357
				0.46237
				0.532766
				0.653041
				0.652329
				0.349769
				0.419371
				0.479696
				0.40792
				0.600864
				0.316911
				0.329132
				0.652657
				0.408885
				0.408981
				0.625033
				0.586689
				0.593563
				0.627651
				0.398868
				0.438062
				0.400382
				0.607163
				0.606251
				0.607087
				0.349018
				0.367222
				0.619717
				0.484744
				0.459323
				0.448561
				0.575081
				0.557269
				0.353364
				0.275292
				0.619505
				0.620135
				0.562812
				0.388836
				0.535942
				0.37998
				0.422111
				0.277906
				0.275043
				0.380029
				0.380092
				0.437056
				0.400149
				0.549798
				0.396714
				0.474061
				0.314295
				0.381804
				0.401753
				0.3675
				0.553079
				0.581281
				0.576058
				0.486114
				0.549577
				0.597814
				0.401864
				0.400903
				0.363102
				0.353351
				0.491834
				0.599292
				0.401665
				0.48355
				0.537323
				0.620096
				0.450192
				0.36893
				0.346722
				0.305743
				0.439459
				0.428748
				0.445732
				0.311237
				0.414061
				0.276601
				0.465999
				0.495706
				0.495459
				0.481121
				0.653196
				0.527028
				0.313892
				0.631322
				0.59471
				0.424504
				0.629855
				0.475156
				0.27698
				0.331992
				0.529992
				0.528918
				0.311841
				0.312103
				0.460737
				0.304263
				0.428806
				0.627767
				0.62784
				0.627069
				0.628716
				0.540334
				0.474971
				0.494556
				0.595208
				0.595156
				0.427826
				0.428044
				0.437398
				0.363647
				0.344149
				0.426499
				0.651954
				0.652043
				0.626907
				0.628901
				0.310587
				0.652591
				0.529193
				0.331333
				0.467777
				0.475127
				0.564729
				0.459825
				0.41561
				0.547773
				0.652439
				0.542655
				0.331726
				0.276193
				0.571798
				0.570991
				0.383662
				0.383654
				0.630564
				0.30588
				0.626564
				0.491806
				0.477969
				0.625847
				0.581664
				0.629858
				0.652935
				0.568959
				0.568925
				0.442443
				0.320339
				0.498642
				0.554677
				0.591138
				0.393416
				0.365218
				0.573331
				0.448463
				0.467605
				0.276163
				0.494882
				0.494627
				0.482015
				0.418395
				0.535944
				0.653011
				0.620572
				0.653116
				0.509157
				0.276009
				0.305754
				0.653358
				0.653731
				0.556732
				0.4227
				0.586861
				0.523834
				0.585997
				0.345988
				0.653475
				0.427326
				0.345609
				0.457951
				0.516068
				0.424377
				0.654128
				0.425469
				0.597591
				0.624502
				0.623353
				0.427694
				0.428739
				0.373741
				0.27588
				0.580065
				0.305694
				0.300871
				0.630362
				0.454345
				0.455569
				0.454551
				0.27644
				0.364667
				0.569849
				0.493657
				0.596599
				0.345563
				0.511323
				0.354276
				0.511419
				0.521444
				0.27577
				0.360465
				0.53558
				0.481335
				0.562988
				0.306306
				0.476377
				0.574159
				0.503828
				0.318474
				0.318764
				0.561739
				0.469072
				0.305406
				0.599867
				0.600719
				0.561504
				0.354595
				0.354641
				0.305172
				0.602864
				0.275383
				0.622972
				0.6309
				0.27528
				0.653656
				0.479351
				0.371571
				0.613479
				0.597923
				0.632745
				0.62607
				0.40966
				0.429342
				0.44277
				0.653335
				0.273911
				0.5008
				0.520243
				0.274867
				0.568319
				0.595003
				0.366896
				0.574235
				0.612833
				0.497383
				0.275734
				0.521522
				0.523062
				0.346817
				0.588144
				0.274329
				0.273534
				0.606947
				0.609921
				0.5303
				0.612811
				0.530487
				0.534835
				0.60908
				0.523197
				0.394247
				0.616454
				0.615944
				0.653349
				0.593558
				0.309317
				0.654529
				0.274131
				0.445589
				0.3509
				0.274017
				0.303904
				0.548901
				0.54777
				0.274235
				0.485679
				0.451192
				0.452906
				0.370833
				0.370726
				0.48648
				0.308671
				0.334215
				0.385428
				0.307472
				0.434629
				0.308311
				0.441794
				0.534818
				0.535461
				0.535276
				0.518989
				0.653813
				0.404516
				0.566478
				0.566295
				0.400436
				0.529564
				0.570025
				0.416288
				0.587253
				0.633394
				0.634083
				0.272995
				0.631762
				0.304307
				0.558562
				0.608879
				0.401164
				0.529702
				0.304073
				0.552899
				0.604583
				0.470277
				0.653974
				0.633512
				0.536209
				0.429468
				0.595843
				0.582586
				0.431485
				0.302264
				0.583505
				0.319864
				0.542168
				0.55886
				0.654169
				0.655089
				0.60386
				0.335115
				0.305053
				0.586551
				0.586334
				0.441163
				0.460932
				0.272659
				0.637103
				0.637169
				0.530515
				0.319218
				0.48573
				0.410836
				0.272581
				0.5116
				0.318464
				0.408082
				0.508629
				0.307703
				0.605569
				0.655107
				0.50567
				0.526671
				0.611427
				0.597262
				0.541192
				0.539864
				0.424454
				0.654248
				0.305549
				0.30742
				0.590292
				0.590403
				0.534386
				0.535523
				0.631068
				0.578531
				0.445566
				0.655594
				0.484076
				0.655296
				0.655544
				0.593863
				0.463832
				0.597051
				0.597327
				0.497268
				0.634358
				0.445974
				0.462774
				0.309454
				0.427392
				0.358514
				0.419822
				0.420971
				0.504897
				0.501667
				0.529722
				0.462162
				0.629489
				0.625015
				0.624789
				0.573193
				0.339458
				0.339759
				0.592601
				0.536158
				0.579603
				0.462956
				0.333819
				0.654566
				0.654679
				0.319732
				0.461562
				0.655178
				0.56232
				0.40255
				0.51801
				0.413252
				0.363447
				0.635966
				0.307939
				0.308537
				0.605545
				0.448264
				0.31254
				0.516828
				0.519551
				0.499214
				0.37018
				0.371317
				0.369578
				0.655389
				0.420896
				0.617897
				0.364932
				0.27312
				0.403975
				0.654626
				0.520242
				0.369442
				0.655843
				0.583813
				0.403255
				0.630746
				0.533895
				0.356418
				0.61781
				0.65564
				0.655993
				0.373041
				0.618247
				0.478669
				0.462016
				0.630203
				0.387492
				0.479914
				0.564588
				0.308786
				0.48668
				0.485991
				0.359522
				0.459493
				0.30684
				0.43923
				0.373303
				0.438321
				0.403802
				0.499235
				0.340685
				0.567584
				0.447407
				0.602093
				0.634048
				0.591463
				0.386564
				0.54749
				0.412345
				0.444833
				0.443846
				0.444368
				0.364907
				0.432644
				0.591198
				0.435926
				0.414849
				0.402735
				0.413906
				0.592494
				0.498185
				0.496948
				0.435909
				0.430632
				0.310171
				0.373476
				0.385087
				0.570068
				0.272333
				0.405416
				0.567335
				0.326111
				0.41952
				0.34999
				0.373683
				0.655712
				0.65538
				0.492333
				0.580582
				0.551746
				0.600014
				0.456339
				0.457912
				0.457003
				0.655451
				0.306305
				0.567415
				0.417628
				0.270311
				0.379559
				0.515902
				0.272195
				0.319805
				0.617107
				0.61669
				0.456578
				0.455758
				0.457433
				0.339614
				0.594226
				0.532619
				0.458325
				0.637299
				0.635481
				0.589592
				0.6333
				0.630664
				0.635971
				0.483237
				0.313313
				0.475422
				0.374287
				0.626429
				0.633665
				0.633624
				0.656107
				0.485597
				0.630048
				0.598335
				0.597991
				0.606643
				0.655866
				0.532384
				0.440712
				0.27122
				0.633674
				0.423823
				0.551359
				0.552221
				0.552959
				0.442599
				0.521401
				0.521495
				0.614202
				0.486352
				0.420894
				0.558882
				0.656023
				0.655882
				0.656216
				0.520768
				0.521084
				0.270398
				0.381714
				0.313097
				0.523387
				0.572018
				0.478299
				0.55898
				0.547025
				0.635947
				0.350764
				0.635162
				0.552762
				0.655733
				0.270527
				0.271043
				0.270921
				0.524605
				0.611
				0.61066
				0.609489
				0.272219
				0.441566
				0.305777
				0.432804
				0.317215
				0.333176
				0.481725
				0.422511
				0.388293
				0.655853
				0.374467
				0.321903
				0.271333
				0.584741
				0.381737
				0.381736
				0.56944
				0.583441
				0.410071
				0.536288
				0.489726
				0.431254
				0.397337
				0.376694
				0.564751
				0.338985
				0.635596
				0.27183
				0.655234
				0.473736
				0.572736
				0.423058
				0.506417
				0.555668
				0.467651
				0.52655