<VTKFile type="UnstructuredGrid" version="0.1" byte_order="LittleEndian">
<UnstructuredGrid>
	<Piece NumberOfPoints="9" NumberOfCells="8">
		<CellData Scalars="density" Vectors="velocity">
			<DataArray type="Float64" Name="density" Format="ascii">
				1
				1
				1
				1
				1
				1
				1
				1
			</DataArray>
			<DataArray type="Float64" Name="mach-number" Format="ascii">
				0.38
				0.38
				0.38
				0.38
				0.38
				0.38
				0.38
				0.38
			</DataArray>
			<DataArray type="Float64" Name="pressure" Format="ascii">
				4.94658
				4.94658
				4.94658
				4.94658
				4.94658
				4.94658
				4.94658
				4.94658
			</DataArray>
			<DataArray type="Float64" Name="velocity" NumberOfComponents="3" Format="ascii">
				1 9.70265e-17 0
				1 -9.70265e-17 0
				1 0 0
				1 0 0
				1 9.70265e-17 0
				1 -9.70265e-17 0
				1 0 0
				1 0 0
			</DataArray>
		</CellData>
		<Points>
		<DataArray type="Float64" NumberOfComponents="3" Format="ascii">
			0 0 0
			1 0 0
			20 0 0
			0 1 0
			1 1 0
			20 1 0
			0 2 0
			1 2 0
			20 2 0
		</DataArray>
		</Points>
		<Cells>
			<DataArray type="UInt32" Name="connectivity" Format="ascii">
				0 1 4
				0 4 3
				1 2 5
				1 5 4
				3 4 7
				3 7 6
				4 5 8
				4 8 7
			</DataArray>
			<DataArray type="UInt32" Name="offsets" Format="ascii">
				3
				6
				9
				12
				15
				18
				21
				24
			</DataArray>
			<DataArray type="Int32" Name="types" Format="ascii">
				5
				5
				5
				5
				5
				5
				5
				5
			</DataArray>
		</Cells>
	</Piece>
</UnstructuredGrid>
</VTKFile>