<VTKFile type="UnstructuredGrid" version="0.1" byte_order="LittleEndian">
<UnstructuredGrid>
	<Piece NumberOfPoints="4224" NumberOfCells="8192">
		<CellData Scalars="density" Vectors="velocity">
			<DataArray type="Float64" Name="density" Format="ascii">
				0.988955
				0.989591
				0.988804
				0.989535
				0.988467
				0.989349
				0.987881
				0.988979
				0.986966
				0.988346
				0.985639
				0.987364
				0.983817
				0.985946
				0.981427
				0.984013
				0.9784
				0.981494
				0.974673
				0.978324
				0.97019
				0.974447
				0.964905
				0.969812
				0.958793
				0.964387
				0.951843
				0.958152
				0.944059
				0.951107
				0.935474
				0.943269
				0.926123
				0.934676
				0.916091
				0.925387
				0.905454
				0.915482
				0.894331
				0.905058
				0.882847
				0.894233
				0.871128
				0.883137
				0.859351
				0.871915
				0.847697
				0.86074
				0.836353
				0.84979
				0.825529
				0.839256
				0.815423
				0.829341
				0.806298
				0.820258
				0.798396
				0.812241
				0.791927
				0.805506
				0.787092
				0.800252
				0.784138
				0.796674
				0.783137
				0.794923
				0.784226
				0.795086
				0.787339
				0.797194
				0.792408
				0.801186
				0.79933
				0.806972
				0.807924
				0.81441
				0.817933
				0.823306
				0.829169
				0.833451
				0.841415
				0.844653
				0.854471
				0.856716
				0.868142
				0.869452
				0.882212
				0.882677
				0.896553
				0.896226
				0.911019
				0.909961
				0.925434
				0.923741
				0.939731
				0.937438
				0.953726
				0.95094
				0.967356
				0.964129
				0.980506
				0.976916
				0.993096
				0.989208
				1.00504
				1.00092
				1.01624
				1.01198
				1.02666
				1.02231
				1.03621
				1.03185
				1.04485
				1.04054
				1.05252
				1.04833
				1.05917
				1.05517
				1.06478
				1.06103
				1.0693
				1.06587
				1.07271
				1.06966
				1.075
				1.07238
				1.07615
				1.07402
				1.07615
				1.07457
				1.075
				1.07402
				1.07271
				1.07238
				1.0693
				1.06966
				1.06478
				1.06587
				1.05917
				1.06103
				1.05252
				1.05517
				1.04485
				1.04833
				1.03621
				1.04054
				1.02666
				1.03185
				1.01624
				1.02231
				1.00504
				1.01198
				0.993096
				1.00092
				0.980506
				0.989208
				0.967359
				0.976917
				0.953717
				0.964127
				0.93973
				0.950938
				0.925443
				0.93744
				0.911016
				0.923742
				0.896552
				0.909961
				0.882212
				0.896225
				0.86814
				0.882676
				0.854468
				0.86945
				0.841424
				0.856718
				0.829166
				0.844655
				0.817932
				0.833451
				0.807923
				0.823305
				0.79933
				0.81441
				0.792409
				0.806972
				0.787339
				0.801186
				0.784226
				0.797194
				0.783137
				0.795086
				0.784138
				0.794923
				0.787092
				0.796674
				0.791927
				0.800252
				0.798396
				0.805506
				0.806298
				0.812241
				0.815423
				0.820258
				0.825529
				0.829341
				0.836354
				0.839257
				0.847697
				0.84979
				0.859351
				0.86074
				0.871128
				0.871916
				0.882848
				0.883137
				0.894331
				0.894233
				0.905454
				0.905058
				0.916093
				0.915483
				0.926118
				0.925386
				0.935475
				0.934676
				0.944059
				0.943269
				0.951844
				0.951107
				0.958793
				0.958152
				0.964904
				0.964387
				0.97019
				0.969812
				0.974672
				0.974447
				0.978401
				0.978324
				0.981427
				0.981494
				0.983817
				0.984013
				0.985639
				0.985946
				0.986966
				0.987364
				0.987881
				0.988346
				0.988467
				0.988979
				0.988804
				0.989349
				0.988955
				0.989535
				0.990496
				0.990327
				0.990433
				0.990291
				0.990267
				0.990162
				0.989931
				0.989883
				0.989341
				0.989375
				0.98841
				0.988548
				0.987058
				0.987318
				0.985215
				0.985609
				0.98282
				0.983353
				0.979816
				0.98049
				0.976154
				0.976965
				0.971798
				0.972732
				0.966721
				0.967757
				0.960913
				0.96202
				0.954381
				0.955518
				0.947148
				0.948265
				0.939257
				0.940293
				0.930767
				0.931653
				0.921759
				0.922414
				0.912325
				0.912667
				0.902579
				0.902517
				0.892646
				0.892082
				0.882669
				0.881503
				0.872804
				0.870935
				0.863221
				0.86055
				0.854102
				0.85053
				0.845639
				0.841071
				0.838033
				0.832386
				0.831488
				0.824698
				0.826199
				0.81822
				0.822347
				0.813155
				0.82008
				0.809701
				0.819508
				0.807996
				0.820678
				0.808142
				0.823579
				0.810155
				0.828142
				0.813991
				0.834252
				0.819557
				0.841754
				0.826705
				0.850472
				0.835242
				0.86022
				0.844973
				0.870821
				0.855701
				0.882097
				0.867233
				0.893882
				0.879386
				0.906021
				0.891982
				0.918374
				0.904867
				0.930811
				0.917904
				0.943217
				0.930956
				0.955479
				0.943914
				0.967499
				0.956658
				0.979184
				0.969093
				0.990453
				0.981129
				1.00123
				0.992683
				1.01144
				1.00368
				1.02102
				1.01404
				1.02991
				1.02372
				1.03806
				1.03264
				1.04543
				1.04077
				1.05196
				1.04804
				1.05763
				1.05443
				1.0624
				1.05989
				1.06625
				1.0644
				1.06916
				1.06794
				1.0711
				1.07047
				1.07208
				1.072
				1.07208
				1.07251
				1.0711
				1.072
				1.06916
				1.07047
				1.06625
				1.06794
				1.0624
				1.0644
				1.05763
				1.05989
				1.05196
				1.05443
				1.04543
				1.04804
				1.03806
				1.04077
				1.02991
				1.03264
				1.02102
				1.02372
				1.01144
				1.01404
				1.00123
				1.00368
				0.990453
				0.992683
				0.979184
				0.981129
				0.967499
				0.969093
				0.955479
				0.956656
				0.943218
				0.943915
				0.930812
				0.930958
				0.918374
				0.917904
				0.906021
				0.904867
				0.893882
				0.891981
				0.882098
				0.879386
				0.870821
				0.867234
				0.860221
				0.855703
				0.850471
				0.844973
				0.841753
				0.835242
				0.834252
				0.826704
				0.828142
				0.819557
				0.823579
				0.813991
				0.820678
				0.810155
				0.819508
				0.808142
				0.82008
				0.807996
				0.822347
				0.809701
				0.826199
				0.813155
				0.831488
				0.81822
				0.838033
				0.824698
				0.845639
				0.832386
				0.854102
				0.841071
				0.863222
				0.850531
				0.872804
				0.86055
				0.882669
				0.870935
				0.892647
				0.881503
				0.902579
				0.892082
				0.912325
				0.902517
				0.921759
				0.912668
				0.930767
				0.922414
				0.939257
				0.931653
				0.947147
				0.940292
				0.954381
				0.948265
				0.960913
				0.955518
				0.966721
				0.96202
				0.971798
				0.967757
				0.976154
				0.972732
				0.979816
				0.976965
				0.98282
				0.98049
				0.985215
				0.983353
				0.987058
				0.985609
				0.98841
				0.987318
				0.989341
				0.988548
				0.989931
				0.989375
				0.990267
				0.989883
				0.990433
				0.990162
				0.990496
				0.990291
				0.991107
				0.991335
				0.991074
				0.991329
				0.990968
				0.991292
				0.990717
				0.991168
				0.990235
				0.990881
				0.989439
				0.990343
				0.988253
				0.989476
				0.986612
				0.988209
				0.98446
				0.986481
				0.981744
				0.984236
				0.978417
				0.981428
				0.974445
				0.978015
				0.969801
				0.973969
				0.964474
				0.96927
				0.958467
				0.963917
				0.951801
				0.957923
				0.944512
				0.951318
				0.936653
				0.944146
				0.928295
				0.936471
				0.919524
				0.928371
				0.910441
				0.919938
				0.901164
				0.911279
				0.891826
				0.902516
				0.882572
				0.893783
				0.873562
				0.885228
				0.86497
				0.877008
				0.856982
				0.869293
				0.849789
				0.86226
				0.84359
				0.856088
				0.838574
				0.850958
				0.834919
				0.847034
				0.83277
				0.844461
				0.832233
				0.843351
				0.833357
				0.843771
				0.836132
				0.845735
				0.840492
				0.849206
				0.846326
				0.854102
				0.853482
				0.8603
				0.861789
				0.867657
				0.87107
				0.87601
				0.881148
				0.885198
				0.891853
				0.895059
				0.903023
				0.90544
				0.914512
				0.916197
				0.926185
				0.927198
				0.937918
				0.93832
				0.949602
				0.949453
				0.961131
				0.960494
				0.972416
				0.971351
				0.98337
				0.981938
				0.993917
				0.992179
				1.00399
				1.002
				1.01352
				1.01134
				1.02245
				1.02014
				1.03073
				1.02835
				1.03832
				1.03592
				1.04516
				1.0428
				1.05123
				1.04896
				1.05649
				1.05437
				1.06092
				1.05899
				1.06449
				1.0628
				1.06718
				1.06579
				1.06898
				1.06793
				1.06989
				1.06923
				1.06989
				1.06966
				1.06898
				1.06923
				1.06718
				1.06793
				1.06449
				1.06579
				1.06092
				1.0628
				1.05649
				1.05899
				1.05123
				1.05437
				1.04516
				1.04896
				1.03832
				1.0428
				1.03073
				1.03592
				1.02245
				1.02835
				1.01352
				1.02014
				1.00399
				1.01134
				0.993917
				1.002
				0.983369
				0.992179
				0.972415
				0.981938
				0.961131
				0.971351
				0.949602
				0.960494
				0.937919
				0.949453
				0.926185
				0.93832
				0.914512
				0.927198
				0.903023
				0.916197
				0.891854
				0.90544
				0.881149
				0.89506
				0.871071
				0.885198
				0.861789
				0.87601
				0.853481
				0.867657
				0.846326
				0.8603
				0.840492
				0.854102
				0.836132
				0.849206
				0.833357
				0.845735
				0.832233
				0.843771
				0.83277
				0.843351
				0.834919
				0.844461
				0.838574
				0.847034
				0.84359
				0.850958
				0.849789
				0.856088
				0.856982
				0.86226
				0.864971
				0.869293
				0.873563
				0.877008
				0.882572
				0.885228
				0.891826
				0.893783
				0.901164
				0.902516
				0.910441
				0.911279
				0.919524
				0.919938
				0.928295
				0.928371
				0.936652
				0.936471
				0.944511
				0.944146
				0.9518
				0.951318
				0.958467
				0.957923
				0.964474
				0.963917
				0.969801
				0.96927
				0.974445
				0.973969
				0.978417
				0.978015
				0.981744
				0.981428
				0.98446
				0.984236
				0.986612
				0.986481
				0.988253
				0.988209
				0.989439
				0.989476
				0.990235
				0.990343
				0.990717
				0.99088
				0.990968
				0.991168
				0.991074
				0.991292
				0.991107
				0.991329
				0.992199
				0.99191
				0.992233
				0.99192
				0.992261
				0.991928
				0.992213
				0.991873
				0.992005
				0.991674
				0.991551
				0.991243
				0.990778
				0.990504
				0.989623
				0.989391
				0.988031
				0.987849
				0.985954
				0.985828
				0.983351
				0.983283
				0.980188
				0.980177
				0.976445
				0.976481
				0.972112
				0.972179
				0.967199
				0.967268
				0.961724
				0.96176
				0.955724
				0.955683
				0.94925
				0.949076
				0.942368
				0.941998
				0.935154
				0.934519
				0.927699
				0.926724
				0.920105
				0.918711
				0.912488
				0.910593
				0.904972
				0.902493
				0.897693
				0.894548
				0.890795
				0.886907
				0.884432
				0.879729
				0.87876
				0.87318
				0.873934
				0.867432
				0.870105
				0.862655
				0.867405
				0.859006
				0.865943
				0.856624
				0.865793
				0.855616
				0.866988
				0.856045
				0.869518
				0.857926
				0.873329
				0.861225
				0.878334
				0.865863
				0.884416
				0.871725
				0.891443
				0.878672
				0.899273
				0.886551
				0.907764
				0.895207
				0.916776
				0.904485
				0.926178
				0.914238
				0.935847
				0.924331
				0.945669
				0.934637
				0.95554
				0.94504
				0.965365
				0.955437
				0.975058
				0.965732
				0.984539
				0.97584
				0.993738
				0.985681
				1.00259
				0.995186
				1.01104
				1.00429
				1.01902
				1.01293
				1.0265
				1.02107
				1.03343
				1.02865
				1.03978
				1.03562
				1.0455
				1.04196
				1.05057
				1.04763
				1.05496
				1.0526
				1.05865
				1.05685
				1.06163
				1.06035
				1.06387
				1.06309
				1.06537
				1.06506
				1.06613
				1.06625
				1.06613
				1.06664
				1.06537
				1.06625
				1.06387
				1.06506
				1.06163
				1.06309
				1.05865
				1.06035
				1.05496
				1.05685
				1.05057
				1.0526
				1.0455
				1.04763
				1.03978
				1.04196
				1.03343
				1.03562
				1.0265
				1.02865
				1.01902
				1.02107
				1.01104
				1.01293
				1.00259
				1.00429
				0.993738
				0.995186
				0.984539
				0.985681
				0.975058
				0.97584
				0.965365
				0.965732
				0.95554
				0.955437
				0.945669
				0.94504
				0.935847
				0.934637
				0.926178
				0.924331
				0.916776
				0.914238
				0.907764
				0.904485
				0.899273
				0.895207
				0.891443
				0.886552
				0.884416
				0.878672
				0.878334
				0.871725
				0.873329
				0.865863
				0.869518
				0.861225
				0.866988
				0.857926
				0.865793
				0.856045
				0.865943
				0.855616
				0.867405
				0.856624
				0.870105
				0.859006
				0.873934
				0.862655
				0.87876
				0.867432
				0.884432
				0.87318
				0.890795
				0.879729
				0.897693
				0.886907
				0.904972
				0.894548
				0.912488
				0.902493
				0.920106
				0.910593
				0.927699
				0.918711
				0.935154
				0.926724
				0.942368
				0.934519
				0.949251
				0.941998
				0.955724
				0.949076
				0.961724
				0.955683
				0.967198
				0.96176
				0.972113
				0.967268
				0.976445
				0.972179
				0.980188
				0.976481
				0.983351
				0.980177
				0.985954
				0.983283
				0.988031
				0.985828
				0.989623
				0.987849
				0.990778
				0.989391
				0.991551
				0.990504
				0.992005
				0.991243
				0.992213
				0.991674
				0.992261
				0.991873
				0.992233
				0.991928
				0.992199
				0.99192
				0.992659
				0.992998
				0.992724
				0.993046
				0.992809
				0.993167
				0.992834
				0.9933
				0.99271
				0.993361
				0.992352
				0.993257
				0.99169
				0.992906
				0.990668
				0.992239
				0.989236
				0.991199
				0.987352
				0.989737
				0.984978
				0.987811
				0.982086
				0.985388
				0.978658
				0.982446
				0.974689
				0.978976
				0.970185
				0.97498
				0.965169
				0.970478
				0.959673
				0.965499
				0.953745
				0.960086
				0.947445
				0.954295
				0.940841
				0.94819
				0.934018
				0.941847
				0.927066
				0.935353
				0.920092
				0.928802
				0.913209
				0.922301
				0.906542
				0.915961
				0.900225
				0.909906
				0.894398
				0.904263
				0.889208
				0.899165
				0.884799
				0.894747
				0.881311
				0.891138
				0.878867
				0.888455
				0.877568
				0.8868
				0.877484
				0.886247
				0.878645
				0.886841
				0.881041
				0.888588
				0.884624
				0.891463
				0.889311
				0.895403
				0.894995
				0.900325
				0.90155
				0.90612
				0.908846
				0.912672
				0.916746
				0.919859
				0.925122
				0.927559
				0.933849
				0.935653
				0.942812
				0.944029
				0.951904
				0.952584
				0.961028
				0.96122
				0.970096
				0.969851
				0.979029
				0.978395
				0.987753
				0.986782
				0.996206
				0.994944
				1.00433
				1.00282
				1.01206
				1.01037
				1.01937
				1.01752
				1.02621
				1.02425
				1.03253
				1.03052
				1.03831
				1.03628
				1.04352
				1.04152
				1.04814
				1.0462
				1.05213
				1.0503
				1.05548
				1.0538
				1.05819
				1.05668
				1.06022
				1.05894
				1.06159
				1.06056
				1.06227
				1.06154
				1.06227
				1.06186
				1.06159
				1.06154
				1.06022
				1.06056
				1.05819
				1.05894
				1.05548
				1.05668
				1.05213
				1.0538
				1.04814
				1.0503
				1.04352
				1.0462
				1.03831
				1.04152
				1.03253
				1.03628
				1.02621
				1.03052
				1.01937
				1.02425
				1.01206
				1.01752
				1.00433
				1.01037
				0.996206
				1.00282
				0.987753
				0.994944
				0.979029
				0.986782
				0.970096
				0.978395
				0.961028
				0.969851
				0.951904
				0.96122
				0.942812
				0.952584
				0.933849
				0.944029
				0.925122
				0.935653
				0.916747
				0.927559
				0.908846
				0.919859
				0.90155
				0.912672
				0.894995
				0.90612
				0.889311
				0.900324
				0.884624
				0.895403
				0.881041
				0.891463
				0.878645
				0.888588
				0.877484
				0.886841
				0.877568
				0.886247
				0.878867
				0.8868
				0.881311
				0.888455
				0.884799
				0.891138
				0.889208
				0.894747
				0.894398
				0.899165
				0.900225
				0.904263
				0.906542
				0.909906
				0.913209
				0.915961
				0.920092
				0.922301
				0.927067
				0.928803
				0.934018
				0.935353
				0.940841
				0.941847
				0.947445
				0.94819
				0.953745
				0.954295
				0.959673
				0.960086
				0.965169
				0.965499
				0.970185
				0.970478
				0.974689
				0.97498
				0.978658
				0.978976
				0.982087
				0.982446
				0.984978
				0.985388
				0.987352
				0.987811
				0.989236
				0.989737
				0.990668
				0.991199
				0.99169
				0.992239
				0.992352
				0.992906
				0.99271
				0.993257
				0.992834
				0.993361
				0.992809
				0.9933
				0.992724
				0.993167
				0.992659
				0.993046
				0.993683
				0.993246
				0.993835
				0.99331
				0.99409
				0.993476
				0.994365
				0.993673
				0.994557
				0.993806
				0.994569
				0.993777
				0.994321
				0.993507
				0.993749
				0.992931
				0.992801
				0.992001
				0.991438
				0.990673
				0.989626
				0.988914
				0.987347
				0.986695
				0.984593
				0.984001
				0.981368
				0.980826
				0.97769
				0.977178
				0.973587
				0.973074
				0.969096
				0.968544
				0.964266
				0.963629
				0.95915
				0.958377
				0.953813
				0.952847
				0.948324
				0.947108
				0.942764
				0.941236
				0.937217
				0.935316
				0.931778
				0.929444
				0.926546
				0.923721
				0.921629
				0.918259
				0.917137
				0.913174
				0.913182
				0.908587
				0.909873
				0.904621
				0.907313
				0.901393
				0.905592
				0.899012
				0.904781
				0.897568
				0.904927
				0.897129
				0.90605
				0.897735
				0.908142
				0.899393
				0.911166
				0.902078
				0.91506
				0.905734
				0.919745
				0.910283
				0.925127
				0.915628
				0.931106
				0.921662
				0.937576
				0.928271
				0.944435
				0.935343
				0.951584
				0.942769
				0.958929
				0.950445
				0.966382
				0.958274
				0.973863
				0.966168
				0.9813
				0.974047
				0.988625
				0.981836
				0.995779
				0.989471
				1.00271
				0.996891
				1.00936
				1.00404
				1.0157
				1.01088
				1.02168
				1.01736
				1.02727
				1.02345
				1.03244
				1.0291
				1.03716
				1.0343
				1.04142
				1.03902
				1.04518
				1.04323
				1.04844
				1.04692
				1.05117
				1.05006
				1.05337
				1.05265
				1.05503
				1.05468
				1.05614
				1.05613
				1.0567
				1.05701
				1.0567
				1.0573
				1.05614
				1.05701
				1.05503
				1.05613
				1.05337
				1.05468
				1.05117
				1.05265
				1.04844
				1.05006
				1.04518
				1.04692
				1.04142
				1.04323
				1.03716
				1.03902
				1.03244
				1.0343
				1.02727
				1.0291
				1.02168
				1.02345
				1.0157
				1.01736
				1.00936
				1.01088
				1.00271
				1.00404
				0.995779
				0.99689
				0.988625
				0.98947
				0.9813
				0.981836
				0.973863
				0.974047
				0.966382
				0.966168
				0.958929
				0.958274
				0.951584
				0.950445
				0.944435
				0.942769
				0.937576
				0.935343
				0.931106
				0.928271
				0.925127
				0.921662
				0.919745
				0.915629
				0.91506
				0.910283
				0.911166
				0.905734
				0.908142
				0.902078
				0.90605
				0.899393
				0.904927
				0.897735
				0.904781
				0.897129
				0.905592
				0.897568
				0.907313
				0.899012
				0.909873
				0.901393
				0.913182
				0.904621
				0.917137
				0.908587
				0.921629
				0.913174
				0.926546
				0.918259
				0.931778
				0.923721
				0.937217
				0.929444
				0.942764
				0.935316
				0.948324
				0.941236
				0.953813
				0.947108
				0.95915
				0.952847
				0.964266
				0.958377
				0.969096
				0.963629
				0.973587
				0.968544
				0.97769
				0.973074
				0.981368
				0.977178
				0.984593
				0.980826
				0.987347
				0.984001
				0.989626
				0.986695
				0.991438
				0.988914
				0.992801
				0.990673
				0.993749
				0.992001
				0.994321
				0.992931
				0.994569
				0.993507
				0.994557
				0.993777
				0.994365
				0.993806
				0.994091
				0.993674
				0.993835
				0.993476
				0.993683
				0.99331
				0.993647
				0.994108
				0.993833
				0.994222
				0.994147
				0.994535
				0.994489
				0.994967
				0.994749
				0.995406
				0.994826
				0.995735
				0.994645
				0.995855
				0.994149
				0.995688
				0.993296
				0.995178
				0.992054
				0.994285
				0.990399
				0.992981
				0.988318
				0.99125
				0.985809
				0.989089
				0.982881
				0.986507
				0.979552
				0.983522
				0.97585
				0.980163
				0.971808
				0.976465
				0.967471
				0.972467
				0.962886
				0.968218
				0.958109
				0.963769
				0.953204
				0.959179
				0.94824
				0.954511
				0.943293
				0.949835
				0.938447
				0.945227
				0.933793
				0.940768
				0.929425
				0.936547
				0.925443
				0.932652
				0.921947
				0.929177
				0.919036
				0.926213
				0.916801
				0.923845
				0.915322
				0.922153
				0.914661
				0.9212
				0.914862
				0.921033
				0.91594
				0.921679
				0.917887
				0.923141
				0.920671
				0.9254
				0.924236
				0.928416
				0.928511
				0.932131
				0.933411
				0.936473
				0.938845
				0.941362
				0.944719
				0.946713
				0.950939
				0.952437
				0.957415
				0.958448
				0.964061
				0.964666
				0.970797
				0.971011
				0.977551
				0.977412
				0.984257
				0.983802
				0.990853
				0.990122
				0.997287
				0.996316
				1.00351
				1.00234
				1.00948
				1.00814
				1.01515
				1.01368
				1.02051
				1.01893
				1.0255
				1.02386
				1.03012
				1.02844
				1.03433
				1.03265
				1.03812
				1.03646
				1.04147
				1.03987
				1.04436
				1.04284
				1.04679
				1.04538
				1.04874
				1.04748
				1.05022
				1.04911
				1.0512
				1.05028
				1.05169
				1.05099
				1.05169
				1.05122
				1.0512
				1.05099
				1.05022
				1.05028
				1.04874
				1.04911
				1.04679
				1.04748
				1.04436
				1.04538
				1.04147
				1.04284
				1.03812
				1.03987
				1.03433
				1.03646
				1.03012
				1.03265
				1.0255
				1.02844
				1.02051
				1.02386
				1.01515
				1.01893
				1.00948
				1.01368
				1.00351
				1.00814
				0.997287
				1.00234
				0.990853
				0.996316
				0.984257
				0.990122
				0.977551
				0.983802
				0.970797
				0.977412
				0.964061
				0.971011
				0.957415
				0.964666
				0.950939
				0.958448
				0.944719
				0.952437
				0.938845
				0.946713
				0.933411
				0.941363
				0.928511
				0.936473
				0.924236
				0.932131
				0.920671
				0.928416
				0.917887
				0.9254
				0.91594
				0.923141
				0.914862
				0.921679
				0.914662
				0.921033
				0.915322
				0.9212
				0.916801
				0.922153
				0.919036
				0.923845
				0.921947
				0.926213
				0.925443
				0.929177
				0.929425
				0.932652
				0.933793
				0.936547
				0.938447
				0.940768
				0.943293
				0.945227
				0.94824
				0.949835
				0.953204
				0.954511
				0.958109
				0.959179
				0.962886
				0.963769
				0.967471
				0.968218
				0.971808
				0.972467
				0.97585
				0.976465
				0.979552
				0.980163
				0.982881
				0.983522
				0.985809
				0.986507
				0.988318
				0.989089
				0.990399
				0.99125
				0.992054
				0.992981
				0.993296
				0.994285
				0.994149
				0.995178
				0.994644
				0.995688
				0.994826
				0.995855
				0.994749
				0.995735
				0.994489
				0.995406
				0.994147
				0.994967
				0.993833
				0.994535
				0.993647
				0.994222
				0.994318
				0.99373
				0.994615
				0.993864
				0.995141
				0.99423
				0.995777
				0.994731
				0.996384
				0.995242
				0.996834
				0.995635
				0.997029
				0.995813
				0.996904
				0.995706
				0.996415
				0.995269
				0.995539
				0.994471
				0.994266
				0.993293
				0.992601
				0.991728
				0.990556
				0.989777
				0.988155
				0.987454
				0.985425
				0.984778
				0.9824
				0.981775
				0.979115
				0.978478
				0.975612
				0.974923
				0.971934
				0.971152
				0.968127
				0.967212
				0.964244
				0.963151
				0.960341
				0.959028
				0.956478
				0.954904
				0.952722
				0.950847
				0.949141
				0.946927
				0.94581
				0.943224
				0.942804
				0.939816
				0.940197
				0.936786
				0.938062
				0.934214
				0.936463
				0.932176
				0.935457
				0.93074
				0.935089
				0.929961
				0.935386
				0.929882
				0.936359
				0.930523
				0.938002
				0.931886
				0.94029
				0.933956
				0.943183
				0.936696
				0.946628
				0.940054
				0.950564
				0.943968
				0.954921
				0.948365
				0.959628
				0.953169
				0.964613
				0.958302
				0.969804
				0.963688
				0.975136
				0.969252
				0.980543
				0.974925
				0.985966
				0.980642
				0.991353
				0.986342
				0.996653
				0.991973
				1.00182
				0.997486
				1.00682
				1.00284
				1.01162
				1.00799
				1.01618
				1.0129
				1.02047
				1.01755
				1.02448
				1.02191
				1.02818
				1.02596
				1.03156
				1.02967
				1.0346
				1.03304
				1.03728
				1.03604
				1.0396
				1.03866
				1.04154
				1.04089
				1.0431
				1.04273
				1.04428
				1.04416
				1.04507
				1.04519
				1.04546
				1.04581
				1.04546
				1.04602
				1.04507
				1.04581
				1.04428
				1.04519
				1.0431
				1.04416
				1.04154
				1.04273
				1.0396
				1.04089
				1.03728
				1.03866
				1.0346
				1.03604
				1.03156
				1.03304
				1.02818
				1.02967
				1.02448
				1.02596
				1.02047
				1.02191
				1.01618
				1.01755
				1.01162
				1.0129
				1.00682
				1.00799
				1.00182
				1.00284
				0.996653
				0.997486
				0.991353
				0.991973
				0.985966
				0.986342
				0.980543
				0.980641
				0.975136
				0.974925
				0.969804
				0.969252
				0.964612
				0.963688
				0.959628
				0.958302
				0.954921
				0.953169
				0.950564
				0.948365
				0.946628
				0.943968
				0.943183
				0.940054
				0.94029
				0.936696
				0.938002
				0.933956
				0.936359
				0.931886
				0.935386
				0.930523
				0.935089
				0.929882
				0.935457
				0.929961
				0.936463
				0.93074
				0.938062
				0.932176
				0.940197
				0.934214
				0.942804
				0.936786
				0.94581
				0.939816
				0.949141
				0.943224
				0.952722
				0.946927
				0.956478
				0.950847
				0.960341
				0.954904
				0.964244
				0.959028
				0.968127
				0.963151
				0.971934
				0.967212
				0.975612
				0.971153
				0.979115
				0.974923
				0.9824
				0.978478
				0.985425
				0.981775
				0.988155
				0.984778
				0.990556
				0.987454
				0.992601
				0.989777
				0.994266
				0.991728
				0.995539
				0.993293
				0.996415
				0.994471
				0.996904
				0.995269
				0.997029
				0.995706
				0.996834
				0.995813
				0.996384
				0.995635
				0.995777
				0.995242
				0.995141
				0.994732
				0.994615
				0.99423
				0.994318
				0.993864
				0.993602
				0.994165
				0.993942
				0.99436
				0.99454
				0.994902
				0.995256
				0.995675
				0.995937
				0.996518
				0.99645
				0.997269
				0.996704
				0.9978
				0.996644
				0.998024
				0.996238
				0.997895
				0.995471
				0.997391
				0.994344
				0.996511
				0.992865
				0.995265
				0.991049
				0.993673
				0.988921
				0.991763
				0.986508
				0.989564
				0.983838
				0.987107
				0.980946
				0.984428
				0.977866
				0.981559
				0.974637
				0.978539
				0.971301
				0.975405
				0.967904
				0.972199
				0.964494
				0.968966
				0.961126
				0.965756
				0.957857
				0.962619
				0.95475
				0.959614
				0.951868
				0.956797
				0.949277
				0.95423
				0.947042
				0.951973
				0.945225
				0.950084
				0.943883
				0.948619
				0.943064
				0.947625
				0.942805
				0.947141
				0.94313
				0.947196
				0.944048
				0.947804
				0.945551
				0.948964
				0.947618
				0.950666
				0.950214
				0.952881
				0.953292
				0.955573
				0.956798
				0.958695
				0.960673
				0.962194
				0.964851
				0.966012
				0.969272
				0.970091
				0.97387
				0.974371
				0.978587
				0.978794
				0.983366
				0.983305
				0.988155
				0.987854
				0.992906
				0.992392
				0.997576
				0.996876
				1.00213
				1.00127
				1.00652
				1.00553
				1.01073
				1.00963
				1.01473
				1.01354
				1.01849
				1.01725
				1.022
				1.02072
				1.02524
				1.02394
				1.02818
				1.02689
				1.03083
				1.02956
				1.03317
				1.03194
				1.03519
				1.03402
				1.03688
				1.0358
				1.03824
				1.03726
				1.03926
				1.0384
				1.03995
				1.03921
				1.04029
				1.0397
				1.04029
				1.03987
				1.03995
				1.0397
				1.03926
				1.03921
				1.03824
				1.0384
				1.03688
				1.03726
				1.03519
				1.0358
				1.03317
				1.03402
				1.03083
				1.03194
				1.02818
				1.02956
				1.02524
				1.02689
				1.022
				1.02394
				1.01849
				1.02072
				1.01473
				1.01725
				1.01073
				1.01354
				1.00652
				1.00963
				1.00213
				1.00553
				0.997576
				1.00127
				0.992906
				0.996876
				0.988155
				0.992392
				0.983366
				0.987854
				0.978587
				0.983305
				0.97387
				0.978794
				0.969272
				0.974371
				0.964852
				0.970091
				0.960673
				0.966012
				0.956798
				0.962194
				0.953292
				0.958695
				0.950214
				0.955573
				0.947618
				0.952881
				0.945551
				0.950666
				0.944048
				0.948964
				0.94313
				0.947804
				0.942805
				0.947196
				0.943064
				0.947141
				0.943883
				0.947625
				0.945225
				0.948619
				0.947042
				0.950084
				0.949277
				0.951973
				0.951868
				0.95423
				0.95475
				0.956797
				0.957857
				0.959614
				0.961126
				0.962619
				0.964494
				0.965756
				0.967904
				0.968966
				0.971301
				0.972199
				0.974637
				0.975405
				0.977866
				0.978539
				0.980946
				0.981559
				0.983838
				0.984428
				0.986508
				0.987107
				0.988921
				0.989564
				0.991049
				0.991763
				0.992865
				0.993673
				0.994344
				0.995265
				0.995472
				0.996511
				0.996238
				0.997391
				0.996644
				0.997895
				0.996705
				0.998024
				0.99645
				0.9978
				0.995937
				0.997269
				0.995256
				0.996518
				0.99454
				0.995675
				0.993942
				0.994902
				0.993602
				0.99436
				0.993855
				0.993138
				0.994321
				0.993358
				0.995153
				0.993968
				0.996178
				0.99483
				0.997198
				0.995761
				0.998043
				0.996588
				0.998596
				0.997184
				0.998798
				0.997475
				0.998628
				0.997424
				0.998092
				0.997022
				0.997207
				0.996274
				0.996002
				0.995196
				0.994507
				0.993811
				0.992756
				0.992144
				0.990779
				0.990223
				0.988609
				0.98808
				0.986276
				0.985743
				0.983811
				0.983244
				0.981246
				0.980615
				0.978616
				0.977891
				0.975957