<VTKFile type="UnstructuredGrid" version="0.1" byte_order="LittleEndian">
<UnstructuredGrid>
	<Piece NumberOfPoints="4224" NumberOfCells="8192">
		<CellData Scalars="density" Vectors="velocity">
			<DataArray type="Float64" Name="density" Format="ascii">
				0.978613
				0.978733
				0.978473
				0.97867
				0.978164
				0.978466
				0.977634
				0.978082
				0.976814
				0.977457
				0.975628
				0.97652
				0.973999
				0.975194
				0.971858
				0.97341
				0.969142
				0.971104
				0.965796
				0.96822
				0.961771
				0.964708
				0.957025
				0.960526
				0.951537
				0.955646
				0.945294
				0.950049
				0.938293
				0.943731
				0.93056
				0.936705
				0.922123
				0.928999
				0.913053
				0.920662
				0.903413
				0.91176
				0.893311
				0.902379
				0.882858
				0.892622
				0.872169
				0.882605
				0.861412
				0.872466
				0.850754
				0.862362
				0.840372
				0.852459
				0.830466
				0.842939
				0.821226
				0.833988
				0.812899
				0.825813
				0.805709
				0.818627
				0.799851
				0.812627
				0.795515
				0.807996
				0.79292
				0.804914
				0.792139
				0.803513
				0.793294
				0.803878
				0.796335
				0.806037
				0.801213
				0.809948
				0.807838
				0.81554
				0.816051
				0.82269
				0.825626
				0.831228
				0.83639
				0.840971
				0.848142
				0.851744
				0.860691
				0.863363
				0.873849
				0.875651
				0.887413
				0.88843
				0.901254
				0.901544
				0.915228
				0.914857
				0.929166
				0.928226
				0.942995
				0.941532
				0.956541
				0.954657
				0.969739
				0.967488
				0.982476
				0.979937
				0.994672
				0.991909
				1.00624
				1.00332
				1.0171
				1.0141
				1.02719
				1.02417
				1.03645
				1.03348
				1.04482
				1.04195
				1.05225
				1.04956
				1.0587
				1.05623
				1.06413
				1.06195
				1.06851
				1.06667
				1.07182
				1.07037
				1.07404
				1.07303
				1.07515
				1.07463
				1.07515
				1.07517
				1.07404
				1.07463
				1.07182
				1.07303
				1.06851
				1.07037
				1.06413
				1.06667
				1.0587
				1.06195
				1.05225
				1.05623
				1.04482
				1.04956
				1.03645
				1.04195
				1.02719
				1.03348
				1.0171
				1.02417
				1.00624
				1.0141
				0.994672
				1.00332
				0.982476
				0.991909
				0.969742
				0.979937
				0.956534
				0.967487
				0.942994
				0.954654
				0.929174
				0.941534
				0.915226
				0.928228
				0.901254
				0.914856
				0.887413
				0.901544
				0.873848
				0.888429
				0.860688
				0.875649
				0.84815
				0.863364
				0.836388
				0.851745
				0.825625
				0.840971
				0.816051
				0.831227
				0.807838
				0.82269
				0.801213
				0.81554
				0.796335
				0.809948
				0.793294
				0.806037
				0.792139
				0.803878
				0.79292
				0.803513
				0.795515
				0.804914
				0.799851
				0.807996
				0.805709
				0.812626
				0.812899
				0.818627
				0.821226
				0.825813
				0.830466
				0.833988
				0.840373
				0.842939
				0.850754
				0.852459
				0.861412
				0.862362
				0.872169
				0.872466
				0.882858
				0.882606
				0.893311
				0.892622
				0.903413
				0.902379
				0.913055
				0.91176
				0.922119
				0.920661
				0.930561
				0.928998
				0.938293
				0.936705
				0.945294
				0.943731
				0.951537
				0.950049
				0.957025
				0.955646
				0.961771
				0.960526
				0.965795
				0.964708
				0.969143
				0.96822
				0.971858
				0.971105
				0.973999
				0.97341
				0.975628
				0.975194
				0.976814
				0.97652
				0.977634
				0.977457
				0.978164
				0.978082
				0.978473
				0.978466
				0.978613
				0.97867
				0.979798
				0.979669
				0.97972
				0.979626
				0.979536
				0.979481
				0.979194
				0.979192
				0.978625
				0.978696
				0.977755
				0.977919
				0.976514
				0.976786
				0.974837
				0.975228
				0.972668
				0.973184
				0.969959
				0.970599
				0.96667
				0.967427
				0.962767
				0.963629
				0.958229
				0.959175
				0.953043
				0.954047
				0.947213
				0.948236
				0.940756
				0.941754
				0.933707
				0.934621
				0.926113
				0.926881
				0.918043
				0.918589
				0.90958
				0.909824
				0.900822
				0.900677
				0.891886
				0.891254
				0.882901
				0.881683
				0.874014
				0.87211
				0.865384
				0.862692
				0.857179
				0.853601
				0.849582
				0.845021
				0.842778
				0.837154
				0.836957
				0.830208
				0.832297
				0.824379
				0.828962
				0.819858
				0.827088
				0.816824
				0.826776
				0.815407
				0.828071
				0.815704
				0.83097
				0.817736
				0.83542
				0.821471
				0.841323
				0.826835
				0.848547
				0.833704
				0.856936
				0.841905
				0.866324
				0.851263
				0.876546
				0.861598
				0.887437
				0.872728
				0.898837
				0.884478
				0.910599
				0.896676
				0.922585
				0.909174
				0.93467
				0.921835
				0.946738
				0.934525
				0.958677
				0.947135
				0.970392
				0.959546
				0.981789
				0.971664
				0.992787
				0.9834
				1.00331
				0.99467
				1.01328
				1.0054
				1.02265
				1.01552
				1.03134
				1.02496
				1.03931
				1.03367
				1.04651
				1.04161
				1.05291
				1.04871
				1.05846
				1.05495
				1.06313
				1.06029
				1.06689
				1.06469
				1.06974
				1.06815
				1.07164
				1.07062
				1.0726
				1.07212
				1.0726
				1.07262
				1.07164
				1.07212
				1.06974
				1.07062
				1.06689
				1.06815
				1.06313
				1.06469
				1.05846
				1.06029
				1.05291
				1.05495
				1.04651
				1.04871
				1.03931
				1.04161
				1.03134
				1.03367
				1.02265
				1.02496
				1.01328
				1.01552
				1.00331
				1.0054
				0.992787
				0.99467
				0.981789
				0.9834
				0.970392
				0.971664
				0.958678
				0.959544
				0.946738
				0.947136
				0.934671
				0.934528
				0.922585
				0.921835
				0.910598
				0.909174
				0.898837
				0.896676
				0.887437
				0.884478
				0.876546
				0.872728
				0.866324
				0.8616
				0.856936
				0.851263
				0.848546
				0.841904
				0.841323
				0.833703
				0.83542
				0.826835
				0.83097
				0.821471
				0.828071
				0.817736
				0.826776
				0.815704
				0.827088
				0.815407
				0.828962
				0.816824
				0.832297
				0.819857
				0.836957
				0.824379
				0.842778
				0.830208
				0.849582
				0.837154
				0.857179
				0.845021
				0.865384
				0.853601
				0.874014
				0.862692
				0.882901
				0.87211
				0.891886
				0.881683
				0.900822
				0.891254
				0.90958
				0.900677
				0.918043
				0.909824
				0.926113
				0.91859
				0.933707
				0.926881
				0.940756
				0.93462
				0.947213
				0.941754
				0.953043
				0.948236
				0.958229
				0.954047
				0.962767
				0.959175
				0.96667
				0.963629
				0.969959
				0.967427
				0.972668
				0.970599
				0.974837
				0.973184
				0.976514
				0.975228
				0.977755
				0.976786
				0.978625
				0.977919
				0.979194
				0.978696
				0.979536
				0.979192
				0.97972
				0.979481
				0.979798
				0.979626
				0.980817
				0.98101
				0.980776
				0.980999
				0.980662
				0.980951
				0.980421
				0.980825
				0.979982
				0.980556
				0.979271
				0.980074
				0.978219
				0.979305
				0.976764
				0.978182
				0.974854
				0.976651
				0.972442
				0.974661
				0.969489
				0.972171
				0.965963
				0.969148
				0.961843
				0.965564
				0.957113
				0.961403
				0.951775
				0.956659
				0.945841
				0.951342
				0.93934
				0.945472
				0.932314
				0.939087
				0.924823
				0.932238
				0.91694
				0.924994
				0.908757
				0.917436
				0.90038
				0.909662
				0.891931
				0.901783
				0.883546
				0.893923
				0.875376
				0.886221
				0.867583
				0.878826
				0.860344
				0.871897
				0.85384
				0.8656
				0.848254
				0.860101
				0.843763
				0.855567
				0.840532
				0.852149
				0.838696
				0.849981
				0.838355
				0.849163
				0.839557
				0.84976
				0.842299
				0.851788
				0.846532
				0.85522
				0.852159
				0.859987
				0.859049
				0.865986
				0.867048
				0.873088
				0.875995
				0.88115
				0.885725
				0.890023
				0.896076
				0.899557
				0.906894
				0.909607
				0.918037
				0.920038
				0.929373
				0.930718
				0.94078
				0.941531
				0.95215
				0.952367
				0.963379
				0.963125
				0.974377
				0.973713
				0.985058
				0.984046
				0.995349
				0.994049
				1.00518
				1.00365
				1.01448
				1.01278
				1.02321
				1.02139
				1.03129
				1.02942
				1.0387
				1.03683
				1.04539
				1.04357
				1.05132
				1.0496
				1.05646
				1.0549
				1.06079
				1.05943
				1.06428
				1.06317
				1.06691
				1.06609
				1.06867
				1.0682
				1.06955
				1.06946
				1.06955
				1.06988
				1.06867
				1.06946
				1.06691
				1.0682
				1.06428
				1.06609
				1.06079
				1.06317
				1.05646
				1.05943
				1.05132
				1.0549
				1.04539
				1.0496
				1.0387
				1.04357
				1.03129
				1.03683
				1.02321
				1.02942
				1.01448
				1.02139
				1.00518
				1.01278
				0.995349
				1.00365
				0.985058
				0.994048
				0.974376
				0.984046
				0.963378
				0.973713
				0.95215
				0.963125
				0.94078
				0.952367
				0.929373
				0.941531
				0.918037
				0.930718
				0.906894
				0.920038
				0.896076
				0.909608
				0.885725
				0.899557
				0.875996
				0.890023
				0.867048
				0.88115
				0.859049
				0.873088
				0.852159
				0.865986
				0.846532
				0.859987
				0.842299
				0.85522
				0.839557
				0.851788
				0.838355
				0.84976
				0.838696
				0.849163
				0.840532
				0.849981
				0.843763
				0.852149
				0.848254
				0.855567
				0.85384
				0.860101
				0.860344
				0.8656
				0.867584
				0.871898
				0.875376
				0.878826
				0.883546
				0.886221
				0.891931
				0.893923
				0.90038
				0.901783
				0.908757
				0.909662
				0.91694
				0.917436
				0.924822
				0.924994
				0.932314
				0.932238
				0.93934
				0.939086
				0.945841
				0.945472
				0.951775
				0.951342
				0.957113
				0.956659
				0.961843
				0.961403
				0.965963
				0.965564
				0.969489
				0.969148
				0.972441
				0.972171
				0.974854
				0.974661
				0.976764
				0.976651
				0.978219
				0.978182
				0.979272
				0.979305
				0.979982
				0.980074
				0.980421
				0.980556
				0.980662
				0.980825
				0.980776
				0.980951
				0.980817
				0.980999
				0.982297
				0.982044
				0.982326
				0.982049
				0.982352
				0.98205
				0.98232
				0.982
				0.982158
				0.981833
				0.981791
				0.981476
				0.981149
				0.980855
				0.980172
				0.979908
				0.978808
				0.978582
				0.977016
				0.97683
				0.974759
				0.974614
				0.972008
				0.971901
				0.968742
				0.968664
				0.96495
				0.964888
				0.960636
				0.960565
				0.955812
				0.955702
				0.950507
				0.950317
				0.944761
				0.944443
				0.938631
				0.938127
				0.932186
				0.93143
				0.925506
				0.924426
				0.918687
				0.917206
				0.911835
				0.909873
				0.905069
				0.902541
				0.898517
				0.895342
				0.892316
				0.888414
				0.88661
				0.881909
				0.881545
				0.875985
				0.877268
				0.870802
				0.873916
				0.866519
				0.871612
				0.863284
				0.870457
				0.861225
				0.870518
				0.860443
				0.871829
				0.860999
				0.874384
				0.86291
				0.87814
				0.866152
				0.883022
				0.870658
				0.888926
				0.876328
				0.895736
				0.883038
				0.903321
				0.89065
				0.91155
				0.899018
				0.920293
				0.907999
				0.929425
				0.917453
				0.938826
				0.927248
				0.948388
				0.937262
				0.958009
				0.947381
				0.967594
				0.957505
				0.977059
				0.967537
				0.986326
				0.977393
				0.995323
				0.986996
				1.00399
				0.996275
				1.01226
				1.00517
				1.02008
				1.01361
				1.02741
				1.02156
				1.03421
				1.02897
				1.04043
				1.03579
				1.04604
				1.04199
				1.05102
				1.04753
				1.05533
				1.0524
				1.05896
				1.05655
				1.06188
				1.05998
				1.06408
				1.06266
				1.06556
				1.06458
				1.0663
				1.06574
				1.0663
				1.06613
				1.06556
				1.06574
				1.06408
				1.06458
				1.06188
				1.06266
				1.05896
				1.05998
				1.05533
				1.05655
				1.05102
				1.0524
				1.04604
				1.04753
				1.04043
				1.04199
				1.03421
				1.03579
				1.02741
				1.02897
				1.02008
				1.02156
				1.01226
				1.01361
				1.00399
				1.00517
				0.995323
				0.996274
				0.986326
				0.986996
				0.977059
				0.977393
				0.967594
				0.967537
				0.958009
				0.957505
				0.948389
				0.947382
				0.938826
				0.937262
				0.929425
				0.927248
				0.920293
				0.917453
				0.91155
				0.907999
				0.903321
				0.899019
				0.895736
				0.89065
				0.888926
				0.883038
				0.883022
				0.876328
				0.87814
				0.870658
				0.874385
				0.866152
				0.871829
				0.86291
				0.870518
				0.860999
				0.870457
				0.860443
				0.871612
				0.861225
				0.873916
				0.863284
				0.877268
				0.866519
				0.881545
				0.870802
				0.88661
				0.875985
				0.892316
				0.881909
				0.898517
				0.888414
				0.905069
				0.895342
				0.911835
				0.902541
				0.918687
				0.909873
				0.925506
				0.917206
				0.932186
				0.924426
				0.938632
				0.93143
				0.944762
				0.938127
				0.950507
				0.944443
				0.955812
				0.950317
				0.960636
				0.955702
				0.964951
				0.960565
				0.968741
				0.964888
				0.972007
				0.968664
				0.974759
				0.971901
				0.977016
				0.974614
				0.978808
				0.97683
				0.980172
				0.978582
				0.981149
				0.979908
				0.981791
				0.980855
				0.982158
				0.981475
				0.98232
				0.981833
				0.982352
				0.982
				0.982326
				0.98205
				0.982297
				0.982049
				0.983269
				0.983581
				0.983327
				0.983626
				0.983409
				0.983744
				0.983455
				0.983886
				0.983389
				0.983983
				0.983134
				0.983955
				0.982623
				0.983723
				0.981798
				0.983222
				0.980613
				0.982396
				0.979028
				0.9812
				0.97701
				0.979595
				0.974532
				0.977552
				0.971575
				0.975047
				0.968131
				0.972069
				0.9642
				0.968614
				0.959796
				0.964694
				0.954946
				0.960331
				0.949686
				0.955559
				0.944069
				0.950425
				0.938155
				0.944987
				0.932022
				0.939315
				0.925754
				0.933488
				0.91945
				0.927598
				0.913218
				0.921743
				0.907178
				0.916032
				0.901456
				0.910582
				0.896187
				0.905514
				0.891508
				0.900954
				0.887556
				0.897029
				0.88446
				0.893857
				0.882337
				0.89155
				0.881282
				0.8902
				0.881358
				0.889877
				0.8826
				0.890623
				0.885001
				0.892448
				0.888521
				0.895329
				0.893088
				0.899216
				0.898606
				0.904031
				0.904963
				0.909681
				0.912036
				0.916059
				0.919701
				0.923051
				0.927833
				0.930545
				0.936314
				0.938427
				0.945033
				0.946591
				0.953886
				0.954937
				0.962779
				0.963371
				0.971624
				0.971808
				0.980342
				0.980168
				0.988864
				0.988379
				0.997123
				0.996377
				1.00506
				1.0041
				1.01263
				1.0115
				1.01978
				1.01853
				1.02647
				1.02514
				1.03266
				1.03129
				1.03832
				1.03696
				1.04342
				1.04211
				1.04794
				1.04671
				1.05185
				1.05074
				1.05513
				1.05418
				1.05778
				1.05702
				1.05978
				1.05924
				1.06111
				1.06084
				1.06178
				1.0618
				1.06178
				1.06212
				1.06111
				1.0618
				1.05978
				1.06084
				1.05778
				1.05924
				1.05513
				1.05702
				1.05185
				1.05418
				1.04794
				1.05074
				1.04342
				1.04671
				1.03832
				1.04211
				1.03266
				1.03696
				1.02647
				1.03129
				1.01978
				1.02514
				1.01263
				1.01853
				1.00506
				1.0115
				0.997123
				1.0041
				0.988864
				0.996377
				0.980342
				0.988379
				0.971624
				0.980168
				0.962779
				0.971808
				0.953886
				0.963371
				0.945033
				0.954937
				0.936314
				0.946591
				0.927833
				0.938427
				0.919701
				0.930545
				0.912036
				0.923051
				0.904963
				0.916059
				0.898606
				0.909681
				0.893088
				0.904031
				0.888521
				0.899216
				0.885001
				0.895329
				0.8826
				0.892448
				0.881358
				0.890623
				0.881282
				0.889877
				0.882337
				0.8902
				0.88446
				0.89155
				0.887556
				0.893857
				0.891508
				0.897029
				0.896187
				0.900954
				0.901456
				0.905514
				0.907178
				0.910582
				0.913218
				0.916032
				0.91945
				0.921743
				0.925754
				0.927598
				0.932022
				0.933488
				0.938155
				0.939315
				0.944069
				0.944987
				0.949686
				0.950425
				0.954946
				0.955559
				0.959797
				0.960331
				0.9642
				0.964694
				0.968131
				0.968614
				0.971575
				0.972069
				0.974532
				0.975047
				0.97701
				0.977552
				0.979028
				0.979595
				0.980613
				0.9812
				0.981798
				0.982396
				0.982623
				0.983222
				0.983134
				0.983723
				0.983389
				0.983955
				0.983455
				0.983983
				0.983409
				0.983886
				0.983327
				0.983744
				0.983269
				0.983626
				0.984803
				0.984388
				0.98495
				0.984446
				0.985207
				0.984603
				0.985503
				0.984805
				0.985755
				0.984976
				0.985875
				0.985032
				0.985783
				0.984896
				0.985418
				0.984504
				0.984727
				0.983805
				0.983672
				0.982758
				0.982223
				0.98133
				0.980355
				0.979494
				0.978058
				0.977232
				0.975328
				0.974535
				0.972175
				0.971402
				0.968619
				0.967844
				0.964691
				0.963883
				0.960431
				0.959553
				0.955889
				0.954895
				0.951125
				0.949962
				0.946205
				0.944818
				0.941205
				0.939535
				0.936209
				0.934194
				0.931306
				0.928885
				0.926593
				0.923707
				0.922172
				0.918765
				0.918149
				0.914172
				0.914628
				0.910042
				0.911714
				0.90649
				0.909501
				0.903627
				0.908073
				0.901555
				0.907497
				0.90036
				0.907818
				0.900104
				0.909054
				0.900828
				0.911201
				0.902539
				0.914227
				0.905218
				0.918077
				0.908817
				0.922681
				0.913265
				0.927952
				0.918476
				0.933798
				0.924349
				0.940121
				0.930781
				0.946824
				0.937664
				0.953814
				0.944895
				0.960999
				0.952374
				0.968297
				0.960009
				0.975627
				0.967713
				0.982918
				0.975406
				0.990105
				0.983018
				0.997129
				0.990482
				1.00394
				0.99774
				1.01048
				1.00474
				1.01671
				1.01143
				1.0226
				1.01778
				1.0281
				1.02374
				1.03319
				1.02929
				1.03784
				1.03438
				1.04204
				1.039
				1.04575
				1.04313
				1.04896
				1.04675
				1.05165
				1.04983
				1.05382
				1.05237
				1.05546
				1.05436
				1.05655
				1.05579
				1.0571
				1.05664
				1.0571
				1.05693
				1.05655
				1.05664
				1.05546
				1.05579
				1.05382
				1.05436
				1.05165
				1.05237
				1.04896
				1.04983
				1.04575
				1.04675
				1.04204
				1.04313
				1.03784
				1.039
				1.03319
				1.03438
				1.0281
				1.02929
				1.0226
				1.02374
				1.01671
				1.01778
				1.01048
				1.01143
				1.00394
				1.00474
				0.997129
				0.99774
				0.990105
				0.990482
				0.982918
				0.983018
				0.975626
				0.975406
				0.968296
				0.967713
				0.960999
				0.960009
				0.953814
				0.952374
				0.946825
				0.944895
				0.940121
				0.937664
				0.933798
				0.930781
				0.927952
				0.924349
				0.922681
				0.918476
				0.918077
				0.913265
				0.914227
				0.908817
				0.911201
				0.905218
				0.909054
				0.902539
				0.907818
				0.900828
				0.907497
				0.900104
				0.908073
				0.90036
				0.909501
				0.901555
				0.911714
				0.903628
				0.914628
				0.90649
				0.918149
				0.910042
				0.922172
				0.914172
				0.926593
				0.918765
				0.931306
				0.923707
				0.936209
				0.928885
				0.941205
				0.934194
				0.946205
				0.939535
				0.951125
				0.944818
				0.955889
				0.949962
				0.960431
				0.954895
				0.964691
				0.959553
				0.968619
				0.963883
				0.972175
				0.967844
				0.975328
				0.971402
				0.978058
				0.974535
				0.980355
				0.977232
				0.982223
				0.979494
				0.983672
				0.98133
				0.984727
				0.982758
				0.985418
				0.983805
				0.985783
				0.984504
				0.985875
				0.984896
				0.985756
				0.985032
				0.985503
				0.984976
				0.985207
				0.984805
				0.98495
				0.984603
				0.984803
				0.984446
				0.985361
				0.985815
				0.985534
				0.985924
				0.985837
				0.986229
				0.986194
				0.986668
				0.986514
				0.987147
				0.986706
				0.987566
				0.986694
				0.987831
				0.986419
				0.987865
				0.985835
				0.987609
				0.984909
				0.98702
				0.983617
				0.986068
				0.98194
				0.984731
				0.979871
				0.983
				0.977412
				0.980876
				0.974573
				0.978368
				0.971375
				0.975496
				0.967845
				0.97229
				0.964023
				0.968785
				0.959952
				0.965026
				0.955686
				0.961063
				0.951285
				0.956952
				0.946816
				0.952757
				0.942353
				0.948544
				0.937976
				0.94439
				0.933773
				0.940372
				0.929834
				0.936574
				0.926255
				0.933083
				0.92313
				0.929987
				0.920553
				0.927372
				0.918608
				0.925318
				0.917373
				0.9239
				0.916904
				0.923176
				0.917244
				0.923193
				0.918409
				0.923973
				0.920394
				0.925523
				0.92317
				0.927826
				0.926688
				0.930846
				0.930883
				0.934531
				0.935677
				0.938815
				0.940986
				0.943625
				0.946721
				0.948879
				0.952793
				0.954497
				0.959116
				0.960396
				0.965608
				0.966498
				0.972192
				0.972728
				0.978796
				0.979015
				0.985356
				0.985296
				0.991813
				0.99151
				0.998113
				0.997604
				1.00421
				1.00353
				1.01006
				1.00924
				1.01562
				1.01471
				1.02087
				1.01989
				1.02577
				1.02475
				1.0303
				1.02927
				1.03443
				1.03342
				1.03815
				1.03719
				1.04144
				1.04055
				1.04428
				1.04349
				1.04666
				1.046
				1.04858
				1.04807
				1.05003
				1.04968
				1.051
				1.05084
				1.05148
				1.05154
				1.05148
				1.05177
				1.051
				1.05154
				1.05003
				1.05084
				1.04858
				1.04968
				1.04666
				1.04807
				1.04428
				1.046
				1.04144
				1.04349
				1.03815
				1.04055
				1.03443
				1.03719
				1.0303
				1.03342
				1.02577
				1.02927
				1.02087
				1.02475
				1.01562
				1.01989
				1.01006
				1.01471
				1.00421
				1.00925
				0.998113
				1.00353
				0.991813
				0.997605
				0.985356
				0.99151
				0.978796
				0.985296
				0.972192
				0.979015
				0.965608
				0.972728
				0.959116
				0.966498
				0.952793
				0.960396
				0.946721
				0.954497
				0.940986
				0.948879
				0.935677
				0.943625
				0.930883
				0.938815
				0.926688
				0.934531
				0.92317
				0.930846
				0.920394
				0.927826
				0.918409
				0.925523
				0.917244
				0.923973
				0.916904
				0.923193
				0.917373
				0.923176
				0.918608
				0.9239
				0.920553
				0.925318
				0.92313
				0.927372
				0.926255
				0.929987
				0.929835
				0.933083
				0.933773
				0.936574
				0.937976
				0.940372
				0.942353
				0.94439
				0.946816
				0.948545
				0.951285
				0.952757
				0.955686
				0.956952
				0.959952
				0.961063
				0.964023
				0.965026
				0.967846
				0.968785
				0.971375
				0.97229
				0.974573
				0.975496
				0.977412
				0.978368
				0.979871
				0.980876
				0.98194
				0.983
				0.983617
				0.984731
				0.984909
				0.986068
				0.985835
				0.98702
				0.986419
				0.987609
				0.986694
				0.987865
				0.986706
				0.987831
				0.986514
				0.987566
				0.986194
				0.987147
				0.985836
				0.986667
				0.985534
				0.986229
				0.985361
				0.985924
				0.986644
				0.986054
				0.986928
				0.986177
				0.987443
				0.986518
				0.988095
				0.987009
				0.988768
				0.987549
				0.989348
				0.988032
				0.989736
				0.988361
				0.989862
				0.988465
				0.989676
				0.988289
				0.989147
				0.987799
				0.988257
				0.98697
				0.987
				0.985788
				0.98538
				0.984249
				0.983412
				0.982356
				0.981116
				0.980122
				0.978521
				0.977568
				0.975662
				0.97472
				0.972576
				0.971613
				0.969308
				0.968284
				0.965904
				0.96478
				0.962417
				0.96115
				0.958902
				0.957448
				0.95542
				0.953736
				0.952034
				0.950079
				0.948813
				0.946548
				0.945827
				0.943215
				0.943147
				0.940159
				0.940845
				0.937456
				0.938988
				0.935182
				0.937638
				0.933411
				0.936849
				0.932205
				0.936661
				0.931617
				0.937102
				0.931686
				0.938182
				0.932435
				0.939896
				0.933865
				0.942222
				0.935963
				0.945123
				0.938696
				0.948552
				0.942017
				0.95245
				0.94587
				0.956753
				0.950185
				0.961395
				0.954894
				0.966307
				0.95992
				0.97142
				0.965192
				0.976671
				0.970638
				0.981997
				0.976192
				0.987341
				0.98179
				0.992651
				0.987374
				0.997878
				0.992893
				1.00298
				0.998297
				1.00791
				1.00354
				1.01265
				1.0086
				1.01715
				1.01342
				1.0214
				1.01799
				1.02536
				1.02227
				1.02902
				1.02624
				1.03236
				1.02989
				1.03537
				1.03319
				1.03802
				1.03614
				1.04032
				1.03871
				1.04224
				1.04091
				1.04379
				1.04272
				1.04496
				1.04413
				1.04574
				1.04514
				1.04613
				1.04575
				1.04613
				1.04595
				1.04574
				1.04575
				1.04496
				1.04514
				1.04379
				1.04413
				1.04224
				1.04272
				1.04032
				1.04091
				1.03802
				1.03871
				1.03537
				1.03614
				1.03236
				1.03319
				1.02902
				1.02989
				1.02536
				1.02624
				1.0214
				1.02227
				1.01715
				1.01799
				1.01265
				1.01342
				1.00791
				1.0086
				1.00298
				1.00354
				0.997878
				0.998297
				0.992651
				0.992893
				0.987341
				0.987374
				0.981997
				0.98179
				0.976671
				0.976192
				0.97142
				0.970638
				0.966307
				0.965192
				0.961395
				0.95992
				0.956753
				0.954894
				0.95245
				0.950185
				0.948552
				0.94587
				0.945123
				0.942017
				0.942222
				0.938696
				0.939896
				0.935963
				0.938182
				0.933865
				0.937102
				0.932435
				0.936661
				0.931686
				0.936849
				0.931617
				0.937638
				0.932205
				0.938988
				0.933411
				0.940845
				0.935182
				0.943147
				0.937456
				0.945827
				0.940159
				0.948813
				0.943215
				0.952034
				0.946548
				0.95542
				0.950079
				0.958902
				0.953736
				0.962417
				0.957448
				0.965904
				0.96115
				0.969308
				0.96478
				0.972576
				0.968284
				0.975662
				0.971613
				0.978521
				0.97472
				0.981116
				0.977568
				0.983412
				0.980122
				0.98538
				0.982356
				0.987
				0.984249
				0.988257
				0.985788
				0.989147
				0.98697
				0.989676
				0.987799
				0.989862
				0.988289
				0.989736
				0.988465
				0.989348
				0.988362
				0.988768
				0.988032
				0.988095
				0.987549
				0.987443
				0.987009
				0.986928
				0.986518
				0.986644
				0.986177
				0.986548
				0.987133
				0.986859
				0.987316
				0.987422
				0.987835
				0.988133
				0.988598
				0.988869
				0.989477
				0.98951
				0.990333
				0.989961
				0.991043
				0.990155
				0.991514
				0.990051
				0.991687
				0.989626
				0.991527
				0.988867
				0.99102
				0.987776
				0.990164
				0.98636
				0.988969
				0.984634
				0.987453
				0.982621
				0.985642
				0.980347
				0.983563
				0.977843
				0.981249
				0.975143
				0.978736
				0.972287
				0.976061
				0.969316
				0.973264
				0.966276
				0.970389
				0.963215
				0.96748
				0.960187
				0.964587
				0.957249
				0.961761
				0.954459
				0.959056
				0.951879
				0.956531
				0.949572
				0.954242
				0.9476
				0.952247
				0.946022
				0.950602
				0.944891
				0.949359
				0.944253
				0.948563
				0.944144
				0.94825
				0.944585
				0.948448
				0.945585
				0.94917
				0.94714
				0.950417
				0.949229
				0.952178
				0.951821
				0.954428
				0.954873
				0.957134
				0.958334
				0.960251
				0.962147
				0.963729
				0.966254
				0.967515
				0.970594
				0.971553
				0.975106
				0.975785
				0.979734
				0.980157
				0.984423
				0.984616
				0.989122
				0.989111
				0.993784
				0.993596
				0.998368
				0.998028
				1.00284
				1.00237
				1.00715
				1.00659
				1.01129
				1.01064
				1.01522
				1.01452
				1.01892
				1.01819
				1.02236
				1.02162
				1.02555
				1.02481
				1.02845
				1.02774
				1.03105
				1.03039
				1.03335
				1.03275
				1.03534
				1.03482
				1.037
				1.03658
				1.03834
				1.03802
				1.03935
				1.03915
				1.04002
				1.03996
				1.04036
				1.04045
				1.04036
				1.04061
				1.04002
				1.04045
				1.03935
				1.03996
				1.03834
				1.03915
				1.037
				1.03802
				1.03534
				1.03658
				1.03335
				1.03482
				1.03105
				1.03275
				1.02845
				1.03039
				1.02555
				1.02774
				1.02236
				1.02481
				1.01892
				1.02162
				1.01522
				1.01819
				1.01129
				1.01452
				1.00715
				1.01065
				1.00284
				1.00659
				0.998368
				1.00237
				0.993784
				0.998028
				0.989122
				0.993596
				0.984423
				0.989111
				0.979734
				0.984616
				0.975106
				0.980157
				0.970594
				0.975785
				0.966254
				0.971553
				0.962147
				0.967515
				0.958334
				0.963729
				0.954873
				0.960251
				0.951821
				0.957134
				0.949229
				0.954428
				0.94714
				0.952178
				0.945585
				0.950417
				0.944585
				0.94917
				0.944144
				0.948448
				0.944253
				0.94825
				0.944891
				0.948563
				0.946022
				0.949359
				0.9476
				0.950602
				0.949572
				0.952247
				0.951879
				0.954242
				0.954459
				0.956531
				0.957249
				0.959056
				0.960187
				0.961761
				0.963215
				0.964587
				0.966276
				0.96748
				0.969316
				0.970388
				0.972287
				0.973264
				0.975143
				0.976061
				0.977843
				0.978736
				0.980347
				0.981249
				0.982621
				0.983563
				0.984634
				0.985642
				0.98636
				0.987453
				0.987776
				0.988969
				0.988867
				0.990164
				0.989626
				0.99102
				0.990051
				0.991527
				0.990155
				0.991687
				0.989961
				0.991514
				0.98951
				0.991043
				0.988869
				0.990333
				0.988133
				0.989477
				0.987422
				0.988598
				0.986859
				0.987835
				0.986548
				0.987316
				0.987459
				0.986717
				0.987897
				0.986915
				0.988696
				0.987475
				0.989723
				0.988297
				0.990814
				0.989241
				0.991816
				0.990162
				0.992606
				0.990936
				0.993108
				0.991473
				0.99328
				0.991721
				0.993108
				0.991655
				0.992598
				0.991265
				0.991765
				0.990557
				0.990632
				0.989544
				0.989228
				0.988245
				0.987582
				0.986685
				0.985728
				0.98489
				0.983697
				0.982891
				0.981523
				0.980719
				0.979241
				0.978407
				0.976885
				0.975993
				0.974495
				0.973512
				0.972109