<VTKFile type="UnstructuredGrid" version="0.1" byte_order="LittleEndian">
<UnstructuredGrid>
	<Piece NumberOfPoints="4224" NumberOfCells="8192">
		<CellData Scalars="density" Vectors="velocity">
			<DataArray type="Float64" Name="density" Format="ascii">
				1.0655
				1.06478
				1.06517
				1.06465
				1.06412
				1.06409
				1.06198
				1.0627
				1.05849
				1.06013
				1.05354
				1.05618
				1.04715
				1.05081
				1.03939
				1.04408
				1.03037
				1.03608
				1.0202
				1.02691
				1.00899
				1.01668
				0.996826
				1.00548
				0.983805
				0.993417
				0.970024
				0.980566
				0.955567
				0.967021
				0.940538
				0.952865
				0.925019
				0.938201
				0.909129
				0.92311
				0.892963
				0.90771
				0.876651
				0.892097
				0.860336
				0.876403
				0.844116
				0.860762
				0.828159
				0.845287
				0.812658
				0.830154
				0.797791
				0.815549
				0.783791
				0.801659
				0.770845
				0.788714
				0.759281
				0.776939
				0.749443
				0.766663
				0.741652
				0.75821
				0.736131
				0.751864
				0.733343
				0.747912
				0.733289
				0.746629
				0.736122
				0.748037
				0.741586
				0.752111
				0.749387
				0.758569
				0.759252
				0.767131
				0.770873
				0.777505
				0.783848
				0.78937
				0.797921
				0.802395
				0.812848
				0.816352
				0.828417
				0.831016
				0.84444
				0.846192
				0.860697
				0.861702
				0.877062
				0.877369
				0.893413
				0.893069
				0.909578
				0.908684
				0.925494
				0.924069
				0.941
				0.939148
				0.956019
				0.953789
				0.970451
				0.967917
				0.984217
				0.98144
				0.997233
				0.994281
				1.00942
				1.00637
				1.0207
				1.01762
				1.03104
				1.02799
				1.04036
				1.03741
				1.04862
				1.04585
				1.05576
				1.05324
				1.06177
				1.05955
				1.0666
				1.06475
				1.07023
				1.06881
				1.07263
				1.07171
				1.07375
				1.07345
				1.07375
				1.07401
				1.07263
				1.07345
				1.07023
				1.07171
				1.0666
				1.06881
				1.06177
				1.06475
				1.05577
				1.05955
				1.04862
				1.05324
				1.04037
				1.04585
				1.03105
				1.03742
				1.02071
				1.028
				1.00943
				1.01763
				0.997246
				1.00638
				0.984231
				0.994294
				0.970467
				0.981454
				0.956034
				0.967932
				0.94101
				0.953801
				0.925516
				0.939166
				0.909606
				0.924092
				0.89343
				0.908702
				0.877085
				0.89309
				0.860721
				0.877391
				0.844464
				0.861725
				0.828445
				0.846215
				0.812887
				0.83105
				0.797945
				0.816378
				0.783881
				0.802426
				0.770907
				0.7894
				0.759288
				0.777539
				0.749426
				0.767167
				0.741626
				0.758607
				0.736163
				0.752151
				0.733331
				0.748077
				0.733385
				0.74667
				0.736173
				0.747952
				0.741693
				0.751903
				0.749481
				0.758248
				0.759318
				0.7667
				0.770881
				0.776974
				0.783824
				0.788747
				0.797823
				0.801691
				0.812688
				0.815578
				0.828188
				0.830182
				0.844143
				0.845314
				0.860362
				0.860788
				0.876675
				0.876427
				0.892987
				0.89212
				0.90915
				0.907731
				0.925033
				0.923125
				0.94056
				0.938221
				0.955585
				0.952883
				0.97004
				0.967037
				0.98382
				0.980581
				0.99684
				0.993431
				1.009
				1.0055
				1.02021
				1.01669
				1.03038
				1.02692
				1.0394
				1.03609
				1.04716
				1.04409
				1.05355
				1.05082
				1.05849
				1.05618
				1.06198
				1.06013
				1.06412
				1.0627
				1.06517
				1.06409
				1.0655
				1.06465
				1.06425
				1.06565
				1.06377
				1.06559
				1.06296
				1.06493
				1.06121
				1.0634
				1.05832
				1.06082
				1.05419
				1.05704
				1.04885
				1.05204
				1.04236
				1.04583
				1.03479
				1.03849
				1.02624
				1.0301
				1.01677
				1.02073
				1.00648
				1.01046
				0.995438
				0.99938
				0.983711
				0.987558
				0.971379
				0.975071
				0.95852
				0.962001
				0.945222
				0.948432
				0.931569
				0.934452
				0.917655
				0.920153
				0.903585
				0.905638
				0.889474
				0.891019
				0.87544
				0.876414
				0.86162
				0.861953
				0.84817
				0.847785
				0.835265
				0.834081
				0.823098
				0.821025
				0.811889
				0.80883
				0.80189
				0.797733
				0.793383
				0.78802
				0.786658
				0.779992
				0.781977
				0.773932
				0.779587
				0.770129
				0.779605
				0.768783
				0.782044
				0.769979
				0.786758
				0.773642
				0.793514
				0.779559
				0.80204
				0.787467
				0.812054
				0.797074
				0.823268
				0.808076
				0.835433
				0.820188
				0.848329
				0.833174
				0.861767
				0.846822
				0.875571
				0.860943
				0.889585
				0.875365
				0.903677
				0.889941
				0.917726
				0.904538
				0.931621
				0.919039
				0.945262
				0.933336
				0.958555
				0.947323
				0.971416
				0.960911
				0.983766
				0.974014
				0.995534
				0.986553
				1.00665
				0.998456
				1.01706
				1.00965
				1.0267
				1.02009
				1.03553
				1.0297
				1.04349
				1.03843
				1.05054
				1.04625
				1.05666
				1.05311
				1.0618
				1.05897
				1.06595
				1.0638
				1.06907
				1.06758
				1.07117
				1.07029
				1.07222
				1.07189
				1.07222
				1.0724
				1.07117
				1.07189
				1.06908
				1.07029
				1.06595
				1.06759
				1.06181
				1.06381
				1.05666
				1.05897
				1.05055
				1.05311
				1.04349
				1.04626
				1.03553
				1.03844
				1.02671
				1.02971
				1.01707
				1.0201
				1.00666
				1.00967
				0.995546
				0.998468
				0.983779
				0.986566
				0.971429
				0.974027
				0.95857
				0.960926
				0.945279
				0.947339
				0.931639
				0.933354
				0.917745
				0.919059
				0.903697
				0.904558
				0.889606
				0.889961
				0.875593
				0.875388
				0.861791
				0.860967
				0.848356
				0.846849
				0.835459
				0.833202
				0.823297
				0.820217
				0.812084
				0.808104
				0.802072
				0.797107
				0.793547
				0.7875
				0.786793
				0.779595
				0.78208
				0.773679
				0.779642
				0.770017
				0.779623
				0.768822
				0.782013
				0.770167
				0.786693
				0.773969
				0.793417
				0.780028
				0.801922
				0.788055
				0.81192
				0.797766
				0.823129
				0.808861
				0.835293
				0.821055
				0.848197
				0.834109
				0.861645
				0.847811
				0.875464
				0.861978
				0.889496
				0.876439
				0.903606
				0.891041
				0.917674
				0.905659
				0.931586
				0.920172
				0.945238
				0.934469
				0.958537
				0.948448
				0.971393
				0.962017
				0.983724
				0.975086
				0.99545
				0.987572
				1.0065
				0.999393
				1.01679
				1.01047
				1.02625
				1.02074
				1.0348
				1.0301
				1.04236
				1.0385
				1.04886
				1.04584
				1.0542
				1.05204
				1.05832
				1.05705
				1.06121
				1.06082
				1.06296
				1.06341
				1.06377
				1.06493
				1.06426
				1.06559
				1.06449
				1.06334
				1.06429
				1.06283
				1.06315
				1.06222
				1.06115
				1.06096
				1.05817
				1.05873
				1.05418
				1.05546
				1.04916
				1.05115
				1.04316
				1.04584
				1.03621
				1.03959
				1.02837
				1.03246
				1.01969
				1.02451
				1.01024
				1.01579
				1.00008
				1.00636
				0.989285
				0.996283
				0.977912
				0.985626
				0.966039
				0.974453
				0.953744
				0.962837
				0.941109
				0.950854
				0.928224
				0.938588
				0.915183
				0.926126
				0.902095
				0.913566
				0.889073
				0.901017
				0.876245
				0.888597
				0.863759
				0.876439
				0.851775
				0.864695
				0.840478
				0.853531
				0.830072
				0.843138
				0.820792
				0.833728
				0.812892
				0.825535
				0.806634
				0.818807
				0.80226
				0.813784
				0.799982
				0.810675
				0.79991
				0.809637
				0.802052
				0.810717
				0.806291
				0.813863
				0.812429
				0.81892
				0.82022
				0.825677
				0.829408
				0.833892
				0.839731
				0.843317
				0.850959
				0.853719
				0.862884
				0.864885
				0.875322
				0.876627
				0.888108
				0.888776
				0.901096
				0.901186
				0.914159
				0.913721
				0.92718
				0.926265
				0.940055
				0.938714
				0.95269
				0.95097
				0.964997
				0.962948
				0.976898
				0.974567
				0.98832
				0.985757
				0.999196
				0.99645
				1.00947
				1.00659
				1.01907
				1.01611
				1.02797
				1.02498
				1.0361
				1.03313
				1.04343
				1.04054
				1.04993
				1.04716
				1.05556
				1.05296
				1.06028
				1.05792
				1.06409
				1.06201
				1.06696
				1.06521
				1.06887
				1.06751
				1.06982
				1.06889
				1.06982
				1.06935
				1.06887
				1.06889
				1.06696
				1.06751
				1.06409
				1.06521
				1.06029
				1.06201
				1.05556
				1.05792
				1.04994
				1.05297
				1.04344
				1.04716
				1.03611
				1.04054
				1.02797
				1.03314
				1.01908
				1.02498
				1.00948
				1.01612
				0.999207
				1.0066
				0.988331
				0.996462
				0.976911
				0.985769
				0.965011
				0.97458
				0.952705
				0.962962
				0.940072
				0.950985
				0.927197
				0.938729
				0.914177
				0.926282
				0.901116
				0.913739
				0.888129
				0.901205
				0.875345
				0.888797
				0.862909
				0.87665
				0.850985
				0.864909
				0.839758
				0.853744
				0.829436
				0.843344
				0.82025
				0.833919
				0.81246
				0.825707
				0.806324
				0.818951
				0.802086
				0.813895
				0.799944
				0.810749
				0.800016
				0.80967
				0.802294
				0.810708
				0.806667
				0.813816
				0.812923
				0.818838
				0.820822
				0.825564
				0.830101
				0.833756
				0.840506
				0.843166
				0.851801
				0.853556
				0.863784
				0.864719
				0.876268
				0.876462
				0.889094
				0.888619
				0.902116
				0.901038
				0.915202
				0.913585
				0.928242
				0.926143
				0.941126
				0.938604
				0.953759
				0.95087
				0.966053
				0.962852
				0.977925
				0.974466
				0.989298
				0.985638
				1.0001
				0.996295
				1.01025
				1.00637
				1.0197
				1.0158
				1.02838
				1.02452
				1.03622
				1.03247
				1.04317
				1.0396
				1.04917
				1.04585
				1.05418
				1.05115
				1.05818
				1.05546
				1.06115
				1.05873
				1.06315
				1.06096
				1.06429
				1.06222
				1.06449
				1.06283
				1.06084
				1.06215
				1.06024
				1.06222
				1.05938
				1.06168
				1.05765
				1.06014
				1.05499
				1.05776
				1.05146
				1.05451
				1.0471
				1.05041
				1.04196
				1.04548
				1.03606
				1.03974
				1.02945
				1.03322
				1.02216
				1.02596
				1.01423
				1.01801
				1.00572
				1.00941
				0.996659
				1.00021
				0.987112
				0.990477
				0.977134
				0.980259
				0.966791
				0.969624
				0.956152
				0.958644
				0.945292
				0.947394
				0.934297
				0.935956
				0.923259
				0.924421
				0.91228
				0.912889
				0.901476
				0.901472
				0.890976
				0.890295
				0.880924
				0.879497
				0.871481
				0.869237
				0.862826
				0.859689
				0.855154
				0.851049
				0.848672
				0.84353
				0.843582
				0.837352
				0.84007
				0.832728
				0.838283
				0.829842
				0.838299
				0.828826
				0.840119
				0.829725
				0.843661
				0.832497
				0.848779
				0.837014
				0.855287
				0.843096
				0.862979
				0.850531
				0.87165
				0.859098
				0.881104
				0.868585
				0.891164
				0.878796
				0.90167
				0.889554
				0.912479
				0.9007
				0.923461
				0.912096
				0.934504
				0.923615
				0.945505
				0.935145
				0.956374
				0.946587
				0.96703
				0.95785
				0.977398
				0.968855
				0.987411
				0.979527
				0.997009
				0.989798
				1.00614
				0.999609
				1.01474
				1.0089
				1.02279
				1.01763
				1.03022
				1.02575
				1.03702
				1.03321
				1.04314
				1.03999
				1.04855
				1.04604
				1.05324
				1.05135
				1.05718
				1.05587
				1.06036
				1.0596
				1.06275
				1.06252
				1.06435
				1.0646
				1.06515
				1.06585
				1.06515
				1.06627
				1.06435
				1.06585
				1.06275
				1.0646
				1.06036
				1.06252
				1.05719
				1.0596
				1.05325
				1.05588
				1.04856
				1.05135
				1.04314
				1.04605
				1.03702
				1.04
				1.03023
				1.03322
				1.02279
				1.02576
				1.01475
				1.01764
				1.00615
				1.00891
				0.997019
				0.999619
				0.987423
				0.989809
				0.97741
				0.979539
				0.967043
				0.968868
				0.956388
				0.957864
				0.94552
				0.946602
				0.934519
				0.935161
				0.923478
				0.923632
				0.912497
				0.912115
				0.90169
				0.90072
				0.891185
				0.889575
				0.881126
				0.878818
				0.871673
				0.868608
				0.863003
				0.859122
				0.855312
				0.850557
				0.848806
				0.843123
				0.843689
				0.837042
				0.840147
				0.832526
				0.838327
				0.829755
				0.838312
				0.828856
				0.840098
				0.829872
				0.843609
				0.832757
				0.848698
				0.837381
				0.85518
				0.843557
				0.862851
				0.851076
				0.871504
				0.859714
				0.880946
				0.86926
				0.890997
				0.87952
				0.901496
				0.890316
				0.912299
				0.901492
				0.923277
				0.912908
				0.934314
				0.924438
				0.945308
				0.935972
				0.956166
				0.947409
				0.966804
				0.958658
				0.977147
				0.969638
				0.987124
				0.980271
				0.99667
				0.990489
				1.00573
				1.00023
				1.01424
				1.00942
				1.02217
				1.01802
				1.02946
				1.02597
				1.03607
				1.03323
				1.04196
				1.03975
				1.04711
				1.04549
				1.05147
				1.05042
				1.055
				1.05451
				1.05765
				1.05776
				1.05938
				1.06014
				1.06024
				1.06168
				1.06084
				1.06222
				1.05865
				1.05739
				1.05876
				1.05691
				1.05776
				1.05644
				1.05591
				1.0552
				1.05327
				1.05309
				1.04991
				1.05021
				1.04585
				1.04663
				1.04113
				1.04241
				1.03575
				1.03757
				1.02974
				1.03213
				1.02313
				1.02611
				1.01594
				1.01954
				1.00822
				1.01243
				1
				1.00484
				0.991333
				0.996791
				0.982268
				0.988339
				0.972862
				0.979533
				0.963181
				0.970432
				0.953293
				0.9611
				0.943275
				0.95161
				0.933215
				0.942038
				0.923206
				0.932474
				0.913359
				0.923016
				0.903791
				0.913775
				0.894636
				0.904873
				0.886043
				0.896445
				0.878174
				0.888641
				0.871206
				0.881622
				0.865319
				0.875557
				0.860695
				0.870616
				0.85749
				0.866955
				0.855831
				0.864705
				0.855784
				0.863953
				0.857351
				0.864731
				0.860468
				0.867007
				0.865012
				0.870693
				0.870826
				0.875658
				0.877733
				0.881745
				0.885549
				0.888784
				0.894101
				0.896605
				0.903224
				0.905047
				0.912771
				0.913964
				0.922607
				0.923218
				0.932612
				0.93269
				0.942679
				0.942269
				0.952713
				0.95186
				0.962628
				0.961375
				0.972347
				0.970737
				0.981802
				0.979876
				0.990929
				0.98873
				0.999675
				0.997242
				1.00799
				1.00536
				1.01582
				1.01305
				1.02314
				1.02026
				1.0299
				1.02695
				1.03607
				1.0331
				1.04163
				1.03868
				1.04654
				1.04366
				1.0508
				1.04801
				1.05437
				1.05173
				1.05724
				1.05479
				1.0594
				1.05719
				1.06083
				1.0589
				1.06156
				1.05994
				1.06156
				1.06029
				1.06083
				1.05994
				1.0594
				1.05891
				1.05724
				1.05719
				1.05437
				1.0548
				1.0508
				1.05173
				1.04655
				1.04802
				1.04163
				1.04366
				1.03608
				1.03868
				1.0299
				1.03311
				1.02314
				1.02696
				1.01583
				1.02026
				1.008
				1.01306
				0.999684
				1.00537
				0.990939
				0.997252
				0.981813
				0.98874
				0.972359
				0.979887
				0.962641
				0.970748
				0.952727
				0.961388
				0.942694
				0.951873
				0.932628
				0.942284
				0.922624
				0.932705
				0.912789
				0.923235
				0.903243
				0.913981
				0.894121
				0.905066
				0.88557
				0.896624
				0.877755
				0.888804
				0.870849
				0.881767
				0.865037
				0.875681
				0.860493
				0.870717
				0.857377
				0.867031
				0.85581
				0.864756
				0.855858
				0.863978
				0.857516
				0.86473
				0.86072
				0.866979
				0.865344
				0.87064
				0.87123
				0.875581
				0.878197
				0.881644
				0.886065
				0.888663
				0.894657
				0.896465
				0.90381
				0.904892
				0.913377
				0.913793
				0.923224
				0.923033
				0.933231
				0.93249
				0.94329
				0.942053
				0.953307
				0.951624
				0.963194
				0.961114
				0.972875
				0.970444
				0.98228
				0.979545
				0.991344
				0.98835
				1.00001
				0.996801
				1.00823
				1.00485
				1.01595
				1.01244
				1.02313
				1.01955
				1.02975
				1.02612
				1.03575
				1.03214
				1.04113
				1.03758
				1.04586
				1.04242
				1.04991
				1.04664
				1.05327
				1.05021
				1.05591
				1.05309
				1.05777
				1.0552
				1.05876
				1.05644
				1.05865
				1.05691
				1.05251
				1.05395
				1.05219
				1.05431
				1.05153
				1.05409
				1.04996
				1.05276
				1.04767
				1.05068
				1.04478
				1.04797
				1.04136
				1.04467
				1.03743
				1.04081
				1.033
				1.03641
				1.02808
				1.03149
				1.02268
				1.02605
				1.01682
				1.02012
				1.01052
				1.01371
				1.00382
				1.00686
				0.996745
				0.999597
				0.989344
				0.991969
				0.98166
				0.984019
				0.973747
				0.975797
				0.965665
				0.967364
				0.95748
				0.958784
				0.949266
				0.95013
				0.941106
				0.941483
				0.933093
				0.932934
				0.925329
				0.924584
				0.917928
				0.916545
				0.911014
				0.908943
				0.904718
				0.90191
				0.89918
				0.895593
				0.894535
				0.890138
				0.890916
				0.885695
				0.888437
				0.882396
				0.88718
				0.880354
				0.887191
				0.879641
				0.888469
				0.880284
				0.89097
				0.882258
				0.894609
				0.885493
				0.899274
				0.889879
				0.904834
				0.895283
				0.91115
				0.901559
				0.918084
				0.908559
				0.925504
				0.916137
				0.933286
				0.924161
				0.94132
				0.932504
				0.949502
				0.941056
				0.957742
				0.949715
				0.965957
				0.958391
				0.974074
				0.967002
				0.982028
				0.975475
				0.989761
				0.983748
				0.99722
				0.991761
				1.00436
				0.999463
				1.01114
				1.00681
				1.01752
				1.01375
				1.02347
				1.02027
				1.02897
				1.02631
				1.03398
				1.03186
				1.03849
				1.03689
				1.04247
				1.04138
				1.04592
				1.0453
				1.04881
				1.04865
				1.05113
				1.0514
				1.05288
				1.05355
				1.05405
				1.05509
				1.05464
				1.05601
				1.05464
				1.05632
				1.05405
				1.05601
				1.05288
				1.05509
				1.05113
				1.05355
				1.04881
				1.0514
				1.04592
				1.04865
				1.04248
				1.04531
				1.03849
				1.04138
				1.03399
				1.0369
				1.02897
				1.03187
				1.02348
				1.02632
				1.01753
				1.02027
				1.01115
				1.01376
				1.00437
				1.00682
				0.997229
				0.999471
				0.98977
				0.99177
				0.982038
				0.983758
				0.974085
				0.975486
				0.965969
				0.967013
				0.957754
				0.958403
				0.949515
				0.949729
				0.941334
				0.941071
				0.933301
				0.93252
				0.925519
				0.924177
				0.918101
				0.916154
				0.911168
				0.908577
				0.904853
				0.901578
				0.899294
				0.895303
				0.89463
				0.8899
				0.890991
				0.885514
				0.88849
				0.882281
				0.887212
				0.880307
				0.887202
				0.879664
				0.888458
				0.880377
				0.890937
				0.882418
				0.894556
				0.885717
				0.899199
				0.890159
				0.904738
				0.895613
				0.911032
				0.90193
				0.917945
				0.908961
				0.925345
				0.916563
				0.933108
				0.924601
				0.94112
				0.93295
				0.949279
				0.941497
				0.957492
				0.950144
				0.965677
				0.958797
				0.973759
				0.967376
				0.981671
				0.975809
				0.989353
				0.984029
				0.996754
				0.991979
				1.00383
				0.999606
				1.01053
				1.00687
				1.01682
				1.01372
				1.02268
				1.02012
				1.02808
				1.02606
				1.033
				1.03149
				1.03743
				1.03642
				1.04136
				1.04081
				1.04478
				1.04467
				1.04767
				1.04797
				1.04996
				1.05069
				1.05153
				1.05276
				1.05219
				1.05409
				1.05251
				1.05431
				1.04877
				1.04724
				1.04927
				1.047
				1.04854
				1.04685
				1.047
				1.04585
				1.04487
				1.04411
				1.04224
				1.04184
				1.03914
				1.03912
				1.0356
				1.03597
				1.03161
				1.03241
				1.02718
				1.02843
				1.02233
				1.02404
				1.01707
				1.01925
				1.01143
				1.01409
				1.00541
				1.00857
				0.999072
				1.00272
				0.992434
				0.996574
				0.985541
				0.990168
				0.978442
				0.983543
				0.971189
				0.97675
				0.963844
				0.969841
				0.956474
				0.96288
				0.949155
				0.955934
				0.941971
				0.949082
				0.935016
				0.942407
				0.928393
				0.936004
				0.922212
				0.929973
				0.91659
				0.924422
				0.91165
				0.919465
				0.90751
				0.915212
				0.904282
				0.911771
				0.902063
				0.909238
				0.900922
				0.907689
				0.900897
				0.907173
				0.901989
				0.907708
				0.904162
				0.909275
				0.907346
				0.911826
				0.911448
				0.915285
				0.916357
				0.919558
				0.921954
				0.924536
				0.928118
				0.930107
				0.934732
				0.936159
				0.941685
				0.942584
				0.948874
				0.949282
				0.956207
				0.95616
				0.963599
				0.963133
				0.970973
				0.970125
				0.978264
				0.977069
				0.98541
				0.983902
				0.992356
				0.99057
				0.999057
				0.997027
				1.00547
				1.00323
				1.01155
				1.00914
				1.01728
				1.01472
				1.02262
				1.01995
				1.02755
				1.0248
				1.03204
				1.02924
				1.03607
				1.03327
				1.03964
				1.03686
				1.04271
				1.03999
				1.0453
				1.04266
				1.04737
				1.04486
				1.04893
				1.04658
				1.04997
				1.04781
				1.0505
				1.04855
				1.0505
				1.0488
				1.04997
				1.04855
				1.04893
				1.04781
				1.04737
				1.04658
				1.0453
				1.04486
				1.04272
				1.04267
				1.03964
				1.03999
				1.03608
				1.03686
				1.03204
				1.03327
				1.02755
				1.02925
				1.02263
				1.0248
				1.01729
				1.01995
				1.01156
				1.01473
				1.00548
				1.00914
				0.999065
				1.00324
				0.992365
				0.997034
				0.985419
				0.990579
				0.978274
				0.983911
				0.970984
				0.977078
				0.96361
				0.970136
				0.956219
				0.963144
				0.948887
				0.956172
				0.941698
				0.949295
				0.934746
				0.942598
				0.928133
				0.936173
				0.92197
				0.930122
				0.916374
				0.924551
				0.911466
				0.919574
				0.907365
				0.915303
				0.904181
				0.911844
				0.902008
				0.909293
				0.900916
				0.907726
				0.900941
				0.907192
				0.902082
				0.907708
				0.904301
				0.909257
				0.907528
				0.911789
				0.911668
				0.91523
				0.916608
				0.919481
				0.922228
				0.924438
				0.928409
				0.929988
				0.935031
				0.936018
				0.941985
				0.942421
				0.949168
				0.949095
				0.956486
				0.955947
				0.963856
				0.962891
				0.9712
				0.969852
				0.978452
				0.97676
				0.985551
				0.983553
				0.992443
				0.990177
				0.99908
				0.996582
				1.00542
				1.00273
				1.01143
				1.00858
				1.01708
				1.0141
				1.02234
				1.01926
				1.02719
				1.02404
				1.03161
				1.02843
				1.0356
				1.03241
				1.03915
				1.03598
				1.04224
				1.03912
				1.04487
				1.04184
				1.047
				1.04411
				1.04854
				1.04585
				1.04927
				1.04685
				1.04877
				1.047
				1.04144
				1.04288
				1.04146
				1.04351
				1.04106
				1.04359
				1.03983
				1.04252
				1.0381
				1.04092
				1.03599
				1.03888
				1.03352
				1.03645
				1.0307
				1.03364
				1.02752
				1.03045
				1.024
				1.0269
				1.02013
				1.02298
				1.01595
				1.01871
				1.01145
				1.01411
				1.00667
				1.00918
				1.00162
				1.00397
				0.996345
				0.998494
				0.990866
				0.992784
				0.985226
				0.986881
				0.979467
				0.980827
				0.973642
				0.974672
				0.967805
				0.96847
				0.96202
				0.962286
				0.956357
				0.956188
				0.950892
				0.950252
				0.945706
				0.944563
				0.940888
				0.939211
				0.936527
				0.93429
				0.932716
				0.9299
				0.929541
				0.926138
				0.927082
				0.923095
				0.925405
				0.920851
				0.924557
				0.91947
				0.924565
				0.918994
				0.925429
				0.919437
				0.927122
				0.920786
				0.929598
				0.923001
				0.932791
				0.926018
				0.936621
				0.929759
				0.941001
				0.934132
				0.94584
				0.939041
				0.951048
				0.944388
				0.956537
				0.950078
				0.962225
				0.956021
				0.968037
				0.962133
				0.973902
				0.968337
				0.979759
				0.974564
				0.985552
				0.980752
				0.991229
				0.986844
				0.996748
				0.992791
				1.00207
				0.998549
				1.00716
				1.00408
				1.01198
				1.00935
				1.01652
				1.01432
				1.02075
				1.01898
				1.02464
				1.0233
				1.02819
				1.02725
				1.03138
				1.03083
				1.03419
				1.03402
				1.03661
				1.03681
				1.03865
				1.03918
				1.04028
				1.04113
				1.04151
				1.04265
				1.04234
				1.04374
				1.04275
				1.0444
				1.04275
				1.04462
				1.04234
				1.0444
				1.04151
				1.04374
				1.04028
				1.04265
				1.03865
				1.04113
				1.03662
				1.03918
				1.03419
				1.03681
				1.03138
				1.03403
				1.02819
				1.03084
				1.02465
				1.02726
				1.02075
				1.0233
				1.01653
				1.01898
				1.01199
				1.01433
				1.00716
				1.00935
				1.00208
				1.00409
				0.996755
				0.998556
				0.991237
				0.992799
				0.98556
				0.986852
				0.979768
				0.980761
				0.973912
				0.974574
				0.968047
				0.968348
				0.962236
				0.962144
				0.956548
				0.956032
				0.95106
				0.95009
				0.945853
				0.944401
				0.941014
				0.939054
				0.936635
				0.934146
				0.932806
				0.929774
				0.929613
				0.926034
				0.927138
				0.923017
				0.925444
				0.920803
				0.924581
				0.919454
				0.924573
				0.919011
				0.92542
				0.919486
				0.927098
				0.920867
				0.929556
				0.923111
				0.932731
				0.926153
				0.936542
				0.929915
				0.940902
				0.934305
				0.945719
				0.939224
				0.950904
				0.944576
				0.956369
				0.950265
				0.962032
				0.956199
				0.967816
				0.962297
				0.973652
				0.968481
				0.979477
				0.974682
				0.985234
				0.980836
				0.990874
				0.98689
				0.996353
				0.992793
				1.00163
				0.998501
				1.00668
				1.00398
				1.01146
				1.00919
				1.01595
				1.01411
				1.02014
				1.01872
				1.024
				1.02298
				1.02752
				1.0269
				1.0307
				1.03046
				1.03352
				1.03364
				1.03599
				1.03645
				1.0381
				1.03888
				1.03983
				1.04092
				1.04106
				1.04252
				1.04146
				1.04359
				1.04144
				1.04351
				1.03738
				1.0358
				1.03814
				1.0358
				1.03761
				1.0359
				1.03644
				1.03515
				1.03491
				1.03388
				1.03305
				1.03229
				1.03087
				1.03039
				1.02837
				1.02819
				1.02555
				1.0257
				1.02243
				1.02291
				1.019
				1.01983
				1.01529
				1.01648
				1.01131
				1.01286
				1.00707
				1.00899
				1.00261
				1.0049
				0.997932
				1.0006
				0.993081
				0.996121
				0.988088
				0.991493
				0.982992
				0.98675
				0.977837
				0.981933
				0.972675
				0.977087
				0.967562
				0.972263
				0.96256
				0.967517
				0.957737
				0.962912
				0.953166
				0.958512
				0.948923
				0.954387
				0.945087
				0.950611
				0.941737
				0.947258
				0.938948
				0.944397
				0.936787
				0.942096
				0.93531
				0.94041
				0.934555
				0.939382
				0.934545
				0.939041
				0.935281
				0.939396
				0.936741
				0.940439
				0.938886
				0.942141
				0.941662
				0.944459
				0.945002
				0.947336
				0.948831
				0.950707
				0.953072
				0.954501
				0.957646
				0.958645
				0.962477
				0.963067
				0.967491
				0.967696
				0.972622
				0.972466
				0.977805
				0.977315
				0.982985
				0.982187
				0.98811
				0.987032
				0.993137
				0.991805
				0.998023
				0.996464
				1.00273
				1.00097
				1.00724
				1.0053
				1.01151
				1.00943
				1.01553
				1.01332
				1.01927
				1.01696
				1.02271
				1.02033
				1.02585
				1.02342
				1.02866
				1.02621
				1.03114
				1.02869
				1.03328
				1.03086
				1.03508
				1.03271
				1.03652
				1.03422
				1.0376
				1.03541
				1.03832
				1.03626
				1.03869
				1.03677
				1.03869
				1.03694
				1.03832
				1.03677
				1.0376
				1.03626
				1.03652
				1.03541
				1.03508
				1.03422
				1.03329
				1.03271
				1.03114
				1.03086
				1.02866
				1.02869
				1.02585
				1.02621
				1.02271
				1.02342
				1.01927
				1.02033
				1.01553
				1.01696
				1.01152
				1.01332
				1.00725
				1.00943
				1.00274
				1.00531
				0.99803
				1.00098
				0.993144
				0.99647
				0.988118
				0.991812
				0.982993
				0.98704
				0.977813
				0.982195
				0.972631
				0.977323
				0.967501
				0.972475
				0.962487
				0.967705
				0.957657
				0.963077
				0.953084
				0.958656
				0.948843
				0.954512
				0.945014
				0.950718
				0.941675
				0.947348
				0.9389
				0.944471
				0.936755
				0.942154
				0.935295
				0.940452
				0.934559
				0.939409
				0.93457
				0.939054
				0.935324
				0.939396
				0.936801
				0.940423
				0.938962
				0.942109
				0.94175
				0.94441
				0.9451
				0.94727
				0.948935
				0.950623
				0.953178
				0.954399
				0.957748
				0.958523
				0.962571
				0.962922
				0.967572
				0.967527
				0.972684
				0.972272
				0.977846
				0.977096
				0.983
				0.981942
				0.988096
				0.986758
				0.993089
				0.9915
				0.997939
				0.996128
				1.00261
				1.00061
				1.00708
				1.00491
				1.01132
				1.009
				1.0153
				1.01286
				1.01901
				1.01648
				1.02243
				1.01983
				1.02555
				1.02291
				1.02837
				1.0257
				1.03087
				1.0282
				1.03305
				1.03039
				1.03491
				1.03229
				1.03645
				1.03388
				1.03761
				1.03515
				1.03814
				1.0359
				1.03738
				1.0358
				1.03036
				1.03161
				1.0306
				1.03238
				1.03037
				1.03258
				1.02948
				1.03176
				1.02831
				1.03064
				1.02689
				1.02925
				1.02521
				1.02759
				1.02328
				1.02566
				1.0211
				1.02347
				1.01869
				1.02101
				1.01603
				1.01831
				1.01316
				1.01536
				1.01007
				1.01217
				1.00679
				1.00877
				1.00333
				1.00517
				0.999708
				1.00139
				0.995953
				0.997446
				0.992091
				0.993374
				0.988154
				0.989203
				0.984177
				0.984969
				0.9802
				0.98071
				0.976269
				0.976474
				0.972433
				0.972309
				0.968745
				0.96827
				0.965261
				0.964415
				0.962038
				0.960805
				0.959135
				0.957504
				0.95661
				0.954575
				0.954517
				0.952077
				0.952903
				0.950069
				0.951806
				0.948596
				0.951253
				0.947694
				0.95126
				0.947387
				0.951826
				0.947684
				0.952936
				0.948577
				0.954565
				0.950043
				0.956674
				0.952046
				0.959215
				0.954539
				0.962134
				0.957466
				0.965374
				0.960768
				0.968877
				0.964382