<VTKFile type="UnstructuredGrid" version="0.1" byte_order="LittleEndian">
<UnstructuredGrid>
	<Piece NumberOfPoints="4224" NumberOfCells="8192">
		<CellData Scalars="density" Vectors="velocity">
			<DataArray type="Float64" Name="density" Format="ascii">
				1.06657
				1.06574
				1.06583
				1.06529
				1.06443
				1.06418
				1.06211
				1.06244
				1.05859
				1.05972
				1.05375
				1.0558
				1.04753
				1.0506
				1.03995
				1.04409
				1.03108
				1.03629
				1.02101
				1.0273
				1.00986
				1.01719
				0.997709
				1.00608
				0.984676
				0.994053
				0.970861
				0.981217
				0.956362
				0.967666
				0.941315
				0.953509
				0.9258
				0.938869
				0.909903
				0.923808
				0.893707
				0.908406
				0.877414
				0.892799
				0.861141
				0.877159
				0.844919
				0.861547
				0.828983
				0.846082
				0.813514
				0.830985
				0.798667
				0.816401
				0.784689
				0.80253
				0.771758
				0.789598
				0.760208
				0.77783
				0.750381
				0.767558
				0.742593
				0.759104
				0.737069
				0.752752
				0.734267
				0.748794
				0.734191
				0.747498
				0.736993
				0.748895
				0.742416
				0.752954
				0.750168
				0.759396
				0.759976
				0.767941
				0.771533
				0.778294
				0.784437
				0.790135
				0.798436
				0.803136
				0.813288
				0.817065
				0.828783
				0.8317
				0.844736
				0.846846
				0.860924
				0.862325
				0.877226
				0.877962
				0.893522
				0.893633
				0.909634
				0.909217
				0.92551
				0.924577
				0.940977
				0.939628
				0.955968
				0.954247
				0.970379
				0.968353
				0.984131
				0.981858
				0.997143
				0.994685
				1.00933
				1.00676
				1.02063
				1.01801
				1.03098
				1.02838
				1.04033
				1.03781
				1.04862
				1.04625
				1.0558
				1.05366
				1.06185
				1.05999
				1.06673
				1.06522
				1.07041
				1.06931
				1.07288
				1.07225
				1.07412
				1.07402
				1.07412
				1.07461
				1.07288
				1.07402
				1.07041
				1.07225
				1.06673
				1.06931
				1.06185
				1.06522
				1.0558
				1.05999
				1.04862
				1.05366
				1.04033
				1.04625
				1.03098
				1.03781
				1.02063
				1.02838
				1.00933
				1.01801
				0.997146
				1.00676
				0.984135
				0.994689
				0.970383
				0.981862
				0.955973
				0.968357
				0.940973
				0.954247
				0.925518
				0.939634
				0.909648
				0.924586
				0.893523
				0.909221
				0.877232
				0.893638
				0.86093
				0.877968
				0.844741
				0.862331
				0.82879
				0.846851
				0.813306
				0.831714
				0.798437
				0.817071
				0.784445
				0.803144
				0.771541
				0.790142
				0.759985
				0.778304
				0.750179
				0.76795
				0.742427
				0.759406
				0.737004
				0.752964
				0.734202
				0.748906
				0.734278
				0.747509
				0.737079
				0.748805
				0.742604
				0.752762
				0.750391
				0.759114
				0.760217
				0.767567
				0.771768
				0.777839
				0.784698
				0.789606
				0.798676
				0.802539
				0.813522
				0.816409
				0.828991
				0.830992
				0.844927
				0.846089
				0.861148
				0.861554
				0.877421
				0.877165
				0.893714
				0.892806
				0.909909
				0.908412
				0.925798
				0.923809
				0.941324
				0.938875
				0.956367
				0.953515
				0.970865
				0.96767
				0.984681
				0.981221
				0.997713
				0.994057
				1.00986
				1.00608
				1.02102
				1.01719
				1.03109
				1.0273
				1.03996
				1.0363
				1.04753
				1.04409
				1.05375
				1.0506
				1.05859
				1.0558
				1.06211
				1.05972
				1.06443
				1.06244
				1.06583
				1.06418
				1.06657
				1.06529
				1.06501
				1.06701
				1.06419
				1.06671
				1.06294
				1.06583
				1.06104
				1.0642
				1.05814
				1.06157
				1.05411
				1.0578
				1.04891
				1.05283
				1.04254
				1.04666
				1.03504
				1.03934
				1.02652
				1.03092
				1.01704
				1.02151
				1.00671
				1.01118
				0.995592
				1.00002
				0.983781
				0.98811
				0.971362
				0.975524
				0.958433
				0.962364
				0.945088
				0.94873
				0.931386
				0.934697
				0.917414
				0.920328
				0.903312
				0.905752
				0.889197
				0.891114
				0.875146
				0.876481
				0.861324
				0.861988
				0.847887
				0.847813
				0.834993
				0.834102
				0.82285
				0.821045
				0.811672
				0.808855
				0.801704
				0.797765
				0.793231
				0.788061
				0.786542
				0.780043
				0.781903
				0.773989
				0.779549
				0.770193
				0.779606
				0.768847
				0.782073
				0.770036
				0.786813
				0.773686
				0.79359
				0.779583
				0.802134
				0.787468
				0.812163
				0.797053
				0.823394
				0.808031
				0.835572
				0.82012
				0.848483
				0.833084
				0.861932
				0.846712
				0.875747
				0.860816
				0.889773
				0.875221
				0.903874
				0.889782
				0.91793
				0.904368
				0.931834
				0.918857
				0.94548
				0.933145
				0.95878
				0.947123
				0.971645
				0.960703
				0.983998
				0.973798
				0.995768
				0.98633
				1.00689
				0.998227
				1.0173
				1.00942
				1.02694
				1.01984
				1.03576
				1.02945
				1.04372
				1.03818
				1.05077
				1.04599
				1.05688
				1.05285
				1.06202
				1.05871
				1.06617
				1.06354
				1.06929
				1.06733
				1.07139
				1.07005
				1.07244
				1.07169
				1.07244
				1.07223
				1.07139
				1.07169
				1.06929
				1.07005
				1.06617
				1.06733
				1.06202
				1.06354
				1.05688
				1.05871
				1.05077
				1.05285
				1.04372
				1.046
				1.03576
				1.03818
				1.02694
				1.02945
				1.0173
				1.01985
				1.00689
				1.00942
				0.995771
				0.99823
				0.984002
				0.986333
				0.971647
				0.973801
				0.958784
				0.960706
				0.945485
				0.947127
				0.931839
				0.933151
				0.917936
				0.918864
				0.903879
				0.904373
				0.889778
				0.889787
				0.875753
				0.875227
				0.86194
				0.860822
				0.84849
				0.846721
				0.835579
				0.833092
				0.823401
				0.820128
				0.81217
				0.808037
				0.802143
				0.797062
				0.793598
				0.787477
				0.786822
				0.779593
				0.782083
				0.773695
				0.779616
				0.770046
				0.779559
				0.768857
				0.781912
				0.770203
				0.786551
				0.773999
				0.79324
				0.780052
				0.801712
				0.78807
				0.81168
				0.797774
				0.822859
				0.808864
				0.835
				0.821053
				0.847894
				0.83411
				0.86133
				0.84782
				0.875153
				0.861995
				0.889202
				0.876488
				0.903318
				0.891119
				0.917419
				0.905758
				0.931389
				0.920333
				0.945093
				0.934701
				0.958437
				0.948734
				0.971366
				0.962369
				0.983785
				0.975528
				0.995596
				0.988114
				1.00671
				1.00003
				1.01704
				1.01119
				1.02652
				1.02151
				1.03505
				1.03093
				1.04254
				1.03934
				1.04891
				1.04667
				1.05411
				1.05283
				1.05814
				1.0578
				1.06104
				1.06157
				1.06294
				1.0642
				1.06419
				1.06583
				1.06501
				1.06671
				1.06561
				1.06376
				1.06507
				1.06327
				1.06389
				1.06224
				1.06182
				1.06083
				1.05877
				1.05862
				1.05471
				1.05542
				1.04962
				1.05119
				1.04354
				1.04593
				1.03653
				1.03968
				1.02863
				1.03252
				1.01991
				1.02452
				1.01042
				1.01575
				1.00024
				1.00628
				0.989414
				0.996163
				0.978017
				0.985466
				0.966131
				0.974263
				0.953837
				0.962636
				0.9412
				0.950657
				0.9283
				0.938388
				0.915253
				0.925922
				0.902168
				0.913372
				0.88914
				0.900839
				0.876311
				0.888432
				0.863825
				0.876296
				0.851835
				0.864568
				0.840536
				0.853422
				0.830131
				0.843054
				0.820848
				0.833667
				0.812944
				0.825497
				0.80668
				0.818791
				0.802304
				0.813791
				0.80002
				0.810705
				0.799942
				0.809689
				0.802073
				0.810788
				0.806296
				0.813949
				0.812415
				0.819017
				0.820189
				0.825782
				0.829358
				0.834004
				0.839665
				0.843437
				0.85088
				0.853848
				0.862792
				0.865023
				0.875218
				0.876773
				0.887993
				0.88893
				0.90097
				0.901347
				0.914022
				0.913887
				0.927032
				0.926436
				0.939898
				0.938888
				0.952522
				0.951146
				0.964822
				0.963126
				0.976715
				0.974747
				0.988131
				0.985938
				0.999002
				0.996632
				1.00927
				1.00677
				1.01887
				1.0163
				1.02776
				1.02516
				1.0359
				1.03332
				1.04323
				1.04073
				1.04973
				1.04735
				1.05536
				1.05315
				1.06009
				1.05811
				1.06391
				1.0622
				1.06678
				1.0654
				1.06871
				1.0677
				1.06968
				1.06908
				1.06968
				1.06954
				1.06871
				1.06908
				1.06678
				1.0677
				1.06391
				1.0654
				1.06009
				1.0622
				1.05536
				1.05811
				1.04973
				1.05315
				1.04323
				1.04735
				1.0359
				1.04073
				1.02777
				1.03332
				1.01887
				1.02516
				1.00927
				1.0163
				0.999004
				1.00677
				0.988134
				0.996635
				0.976718
				0.98594
				0.964825
				0.97475
				0.952526
				0.963129
				0.939902
				0.95115
				0.927036
				0.938892
				0.914027
				0.92644
				0.900975
				0.913893
				0.887998
				0.901352
				0.875225
				0.888936
				0.862799
				0.87678
				0.850887
				0.865029
				0.839672
				0.853854
				0.829365
				0.843444
				0.820197
				0.834011
				0.812424
				0.82579
				0.806305
				0.819025
				0.802082
				0.813957
				0.799951
				0.810797
				0.800029
				0.809697
				0.802313
				0.810714
				0.806689
				0.813799
				0.812953
				0.8188
				0.820856
				0.825505
				0.830139
				0.833675
				0.840544
				0.843061
				0.851842
				0.853429
				0.863832
				0.864575
				0.876317
				0.876302
				0.889145
				0.888438
				0.902173
				0.900844
				0.915258
				0.913377
				0.928305
				0.925926
				0.941204
				0.938393
				0.953841
				0.95066
				0.966134
				0.96264
				0.97802
				0.974267
				0.989418
				0.98547
				1.00024
				0.996167
				1.01043
				1.00628
				1.01991
				1.01576
				1.02863
				1.02453
				1.03653
				1.03253
				1.04355
				1.03968
				1.04962
				1.04593
				1.05471
				1.05119
				1.05877
				1.05543
				1.06182
				1.05862
				1.06389
				1.06083
				1.06507
				1.06224
				1.06561
				1.06327
				1.06126
				1.06326
				1.06042
				1.06303
				1.0593
				1.06227
				1.0576
				1.0607
				1.05501
				1.05822
				1.05152
				1.05488
				1.04715
				1.05068
				1.04196
				1.04566
				1.03601
				1.03985
				1.02934
				1.0333
				1.02202
				1.02603
				1.01407
				1.01809
				1.00555
				1.00951
				0.996488
				1.00033
				0.98694
				0.990602
				0.976965
				0.98039
				0.966631
				0.969765
				0.956005
				0.958793
				0.945152
				0.947544
				0.934159
				0.936098
				0.923125
				0.924554
				0.912152
				0.913014
				0.901357
				0.901588
				0.890866
				0.890404
				0.880822
				0.879595
				0.871388
				0.869322
				0.862747
				0.859766
				0.855088
				0.851117
				0.848622
				0.843589
				0.84355
				0.837404
				0.840053
				0.832771
				0.838281
				0.829875
				0.838313
				0.82885
				0.84015
				0.829739
				0.843708
				0.8325
				0.84884
				0.837003
				0.85536
				0.843071
				0.863061
				0.850489
				0.871741
				0.859041
				0.881205
				0.868514
				0.891275
				0.878714
				0.90179
				0.889462
				0.912607
				0.900599
				0.923597
				0.911986
				0.934647
				0.923497
				0.945654
				0.935018
				0.956528
				0.946452
				0.967187
				0.957707
				0.977557
				0.968705
				0.987572
				0.979369
				0.997171
				0.989636
				1.0063
				0.999442
				1.01491
				1.00873
				1.02295
				1.01746
				1.03039
				1.02558
				1.03718
				1.03304
				1.0433
				1.03982
				1.04872
				1.04587
				1.05341
				1.05118
				1.05735
				1.05571
				1.06052
				1.05944
				1.06291
				1.06236
				1.06451
				1.06446
				1.06531
				1.06572
				1.06531
				1.06615
				1.06451
				1.06572
				1.06291
				1.06446
				1.06052
				1.06237
				1.05735
				1.05944
				1.05341
				1.05571
				1.04872
				1.05118
				1.04331
				1.04587
				1.03719
				1.03982
				1.03039
				1.03304
				1.02295
				1.02558
				1.01491
				1.01746
				1.0063
				1.00874
				0.997173
				0.999444
				0.987575
				0.989638
				0.97756
				0.979373
				0.96719
				0.968708
				0.956531
				0.957711
				0.945659
				0.946456
				0.934652
				0.935023
				0.923602
				0.923501
				0.912612
				0.911991
				0.901795
				0.900604
				0.89128
				0.889467
				0.88121
				0.878719
				0.871747
				0.868521
				0.863068
				0.859047
				0.855366
				0.850496
				0.848847
				0.843078
				0.843716
				0.837011
				0.840157
				0.832507
				0.83832
				0.829747
				0.838288
				0.828858
				0.840061
				0.829883
				0.843557
				0.832779
				0.848629
				0.837411
				0.855095
				0.843596
				0.862753
				0.851125
				0.871395
				0.859773
				0.880828
				0.869328
				0.890872
				0.879601
				0.901362
				0.89041
				0.912157
				0.901593
				0.92313
				0.913019
				0.934163
				0.924559
				0.945156
				0.936102
				0.956008
				0.947548
				0.966635
				0.958797
				0.976968
				0.969768
				0.986943
				0.980394
				0.996492
				0.990605
				1.00555
				1.00033
				1.01408
				1.00951
				1.02202
				1.01809
				1.02935
				1.02604
				1.03601
				1.0333
				1.04196
				1.03986
				1.04715
				1.04566
				1.05152
				1.05068
				1.05501
				1.05488
				1.0576
				1.05822
				1.0593
				1.0607
				1.06042
				1.06227
				1.06126
				1.06303
				1.05963
				1.05789
				1.05926
				1.0574
				1.05822
				1.05646
				1.05626
				1.05517
				1.05352
				1.05312
				1.05007
				1.05024
				1.04594
				1.04663
				1.04118
				1.04236
				1.03578
				1.03746
				1.02978
				1.03198
				1.02319
				1.02594
				1.01603
				1.01936
				1.00833
				1.01226
				1.00013
				1.00468
				0.991477
				0.996646
				0.982415
				0.988202
				0.973011
				0.979404
				0.96333
				0.970312
				0.953438
				0.960989
				0.943411
				0.951502
				0.933339
				0.941931
				0.923318
				0.932368
				0.913459
				0.922912
				0.903881
				0.913676
				0.894714
				0.904779
				0.886108
				0.896357
				0.878227
				0.88856
				0.871245
				0.881548
				0.865349
				0.875493
				0.860717
				0.870565
				0.857502
				0.866919
				0.855831
				0.864681
				0.855772
				0.863941
				0.85733
				0.864731
				0.860439
				0.867022
				0.864975
				0.870724
				0.87078
				0.875706
				0.877675
				0.881806
				0.885479
				0.888854
				0.894018
				0.896683
				0.903131
				0.905131
				0.912668
				0.914054
				0.922497
				0.923315
				0.932496
				0.932793
				0.942558
				0.94238
				0.952588
				0.951976
				0.962499
				0.961497
				0.972214
				0.970864
				0.981666
				0.980007
				0.990791
				0.988864
				0.999534
				0.997379
				1.00785
				1.0055
				1.01568
				1.01319
				1.023
				1.0204
				1.02976
				1.02709
				1.03593
				1.03324
				1.04149
				1.03882
				1.04641
				1.0438
				1.05067
				1.04815
				1.05424
				1.05187
				1.05712
				1.05493
				1.05929
				1.05733
				1.06074
				1.05904
				1.06146
				1.06008
				1.06146
				1.06042
				1.06074
				1.06008
				1.05929
				1.05904
				1.05712
				1.05733
				1.05424
				1.05493
				1.05067
				1.05187
				1.04641
				1.04815
				1.04149
				1.0438
				1.03593
				1.03882
				1.02976
				1.03325
				1.023
				1.0271
				1.01568
				1.0204
				1.00785
				1.01319
				0.999537
				1.0055
				0.990793
				0.997382
				0.981669
				0.988867
				0.972218
				0.98001
				0.962502
				0.970867
				0.952592
				0.961501
				0.942562
				0.95198
				0.9325
				0.942384
				0.922501
				0.932797
				0.912673
				0.923319
				0.903136
				0.914059
				0.894024
				0.905137
				0.885484
				0.896688
				0.877681
				0.888859
				0.870786
				0.881811
				0.864982
				0.875712
				0.860445
				0.870731
				0.857337
				0.867028
				0.855779
				0.864737
				0.855837
				0.863947
				0.857509
				0.864688
				0.860724
				0.866926
				0.865356
				0.870572
				0.871252
				0.875499
				0.878233
				0.881554
				0.886114
				0.888566
				0.894719
				0.896363
				0.903886
				0.904784
				0.913464
				0.913681
				0.923323
				0.922917
				0.933343
				0.932372
				0.943415
				0.941935
				0.953442
				0.951506
				0.963334
				0.960992
				0.973014
				0.970315
				0.982418
				0.979407
				0.99148
				0.988205
				1.00014
				0.996648
				1.00834
				1.00468
				1.01603
				1.01226
				1.02319
				1.01936
				1.02979
				1.02594
				1.03579
				1.03198
				1.04118
				1.03746
				1.04594
				1.04236
				1.05007
				1.04664
				1.05352
				1.05024
				1.05626
				1.05312
				1.05822
				1.05518
				1.05926
				1.05646
				1.05963
				1.05741
				1.05321
				1.05505
				1.05249
				1.05497
				1.05152
				1.05445
				1.04998
				1.05306
				1.04768
				1.05087
				1.04475
				1.04807
				1.04127
				1.04473
				1.0373
				1.04085
				1.03284
				1.03645
				1.02791
				1.03154
				1.02251
				1.02612
				1.01666
				1.0202
				1.01038
				1.01381
				1.0037
				1.00697
				0.996636
				0.999716
				0.989241
				0.99209
				0.981562
				0.984138
				0.973654
				0.975915
				0.965575
				0.967479
				0.957392
				0.958894
				0.949179
				0.950232
				0.941019
				0.941574
				0.933006
				0.933014
				0.925243
				0.924652
				0.917846
				0.916602
				0.910937
				0.908989
				0.904647
				0.901945
				0.899111
				0.895614
				0.894471
				0.890146
				0.890862
				0.885692
				0.888396
				0.882386
				0.887151
				0.880336
				0.887172
				0.879614
				0.888459
				0.880248
				0.890971
				0.882214
				0.894624
				0.885442
				0.899303
				0.889824
				0.904876
				0.895223
				0.911203
				0.901493
				0.918144
				0.908484
				0.92557
				0.916053
				0.933357
				0.924067
				0.941395
				0.932403
				0.949582
				0.94095
				0.957828
				0.949605
				0.966049
				0.958279
				0.974173
				0.966889
				0.982133
				0.975363
				0.989871
				0.983637
				0.997335
				0.991651
				1.00448
				0.999354
				1.01126
				1.0067
				1.01764
				1.01365
				1.0236
				1.02016
				1.02909
				1.02621
				1.0341
				1.03176
				1.03861
				1.03679
				1.04259
				1.04128
				1.04604
				1.04521
				1.04892
				1.04856
				1.05125
				1.05131
				1.053
				1.05347
				1.05417
				1.05502
				1.05475
				1.05595
				1.05475
				1.05626
				1.05417
				1.05595
				1.053
				1.05502
				1.05125
				1.05347
				1.04892
				1.05132
				1.04604
				1.04856
				1.04259
				1.04521
				1.03861
				1.04128
				1.03411
				1.03679
				1.02909
				1.03176
				1.0236
				1.02621
				1.01765
				1.02016
				1.01126
				1.01365
				1.00448
				1.0067
				0.997338
				0.999356
				0.989874
				0.991653
				0.982136
				0.983639
				0.974176
				0.975366
				0.966052
				0.966892
				0.957831
				0.958282
				0.949586
				0.949609
				0.941399
				0.940954
				0.933361
				0.932407
				0.925574
				0.924072
				0.918149
				0.916058
				0.911207
				0.908489
				0.904881
				0.901498
				0.899308
				0.895229
				0.894629
				0.88983
				0.890976
				0.885448
				0.888465
				0.88222
				0.887178
				0.880254
				0.887156
				0.87962
				0.888401
				0.880342
				0.890868
				0.882392
				0.894477
				0.885698
				0.899116
				0.890152
				0.904652
				0.895619
				0.910942
				0.901951
				0.917851
				0.908994
				0.925248
				0.916607
				0.93301
				0.924657
				0.941023
				0.933018
				0.949183
				0.941578
				0.957396
				0.950235
				0.965579
				0.958897
				0.973657
				0.967482
				0.981565
				0.975918
				0.989244
				0.984141
				0.996638
				0.992093
				1.0037
				0.999719
				1.01039
				1.00697
				1.01667
				1.01381
				1.02251
				1.0202
				1.02791
				1.02612
				1.03284
				1.03154
				1.0373
				1.03645
				1.04128
				1.04085
				1.04475
				1.04473
				1.04768
				1.04807
				1.04998
				1.05087
				1.05152
				1.05306
				1.05249
				1.05445
				1.05321
				1.05497
				1.04969
				1.04802
				1.0496
				1.04764
				1.04882
				1.04692
				1.04717
				1.04585
				1.04496
				1.04412
				1.04229
				1.0418
				1.03919
				1.03903
				1.03564
				1.03585
				1.03166
				1.03227
				1.02725
				1.02829
				1.0224
				1.02391
				1.01715
				1.01913
				1.01151
				1.01398
				1.0055
				1.00847
				0.999161
				1.00263
				0.992523
				0.996494
				0.985628
				0.990091
				0.978527
				0.983469
				0.971271
				0.976676
				0.963921
				0.969769
				0.956546
				0.962809
				0.949219
				0.955865
				0.942026
				0.949014
				0.93506
				0.942337
				0.928425
				0.935932
				0.922235
				0.929903
				0.916605
				0.924357
				0.911653
				0.919404
				0.9075
				0.915154
				0.904261
				0.911714
				0.902036
				0.909187
				0.900892
				0.907648
				0.900862
				0.907145
				0.901947
				0.90769
				0.904111
				0.909263
				0.907289
				0.91182
				0.911387
				0.915288
				0.916294
				0.919572
				0.92189
				0.924563
				0.92805
				0.930146
				0.934659
				0.936208
				0.941606
				0.94264
				0.94879
				0.949343
				0.956118
				0.956224
				0.963508
				0.963201
				0.970882
				0.970197
				0.978174
				0.977145
				0.985322
				0.983984
				0.992272
				0.990658
				0.998976
				0.99712
				1.00539
				1.00333
				1.01148
				1.00924
				1.01721
				1.01483
				1.02255
				1.02005
				1.02748
				1.0249
				1.03197
				1.02935
				1.03601
				1.03337
				1.03957
				1.03696
				1.04265
				1.04009
				1.04524
				1.04276
				1.04731
				1.04496
				1.04888
				1.04667
				1.04992
				1.0479
				1.05045
				1.04864
				1.05045
				1.04889
				1.04992
				1.04864
				1.04888
				1.0479
				1.04731
				1.04667
				1.04524
				1.04496
				1.04265
				1.04276
				1.03957
				1.04009
				1.03601
				1.03696
				1.03197
				1.03337
				1.02748
				1.02935
				1.02255
				1.0249
				1.01721
				1.02006
				1.01148
				1.01483
				1.00539
				1.00924
				0.998978
				1.00333
				0.992274
				0.997122
				0.985324
				0.99066
				0.978176
				0.983986
				0.970885
				0.977148
				0.963511
				0.9702
				0.956121
				0.963203
				0.948793
				0.956227
				0.94161
				0.949346
				0.934663
				0.942644
				0.928054
				0.936211
				0.921894
				0.93015
				0.916299
				0.924567
				0.911392
				0.919576
				0.907294
				0.915293
				0.904116
				0.911825
				0.901952
				0.909268
				0.900867
				0.907694
				0.900897
				0.90715
				0.902041
				0.907653
				0.904266
				0.909192
				0.907505
				0.911719
				0.911658
				0.915159
				0.91661
				0.919409
				0.922239
				0.924361
				0.92843
				0.929907
				0.935064
				0.935936
				0.94203
				0.942341
				0.949223
				0.949017
				0.956549
				0.955869
				0.963924
				0.962812
				0.971274
				0.969772
				0.978529
				0.976679
				0.985631
				0.983472
				0.992525
				0.990094
				0.999163
				0.996496
				1.0055
				1.00264
				1.01151
				1.00848
				1.01715
				1.01398
				1.02241
				1.01914
				1.02725
				1.02391
				1.03166
				1.02829
				1.03565
				1.03227
				1.03919
				1.03585
				1.04229
				1.03904
				1.04496
				1.04181
				1.04717
				1.04412
				1.04882
				1.04585
				1.0496
				1.04692
				1.04969
				1.04764
				1.04223
				1.0439
				1.04173
				1.044
				1.04104
				1.04379
				1.03984
				1.04271
				1.03809
				1.041
				1.03593
				1.03893
				1.03343
				1.0365
				1.0306
				1.03369
				1.02742
				1.03051
				1.0239
				1.02696
				1.02005
				1.02304
				1.01587
				1.01877
				1.01138
				1.01417
				1.0066
				1.00925
				1.00156
				1.00403
				0.996288
				0.998559
				0.990812
				0.992851
				0.985172
				0.986947
				0.979413
				0.980891
				0.973586
				0.974732
				0.967751
				0.968526
				0.961969
				0.962338
				0.956307
				0.956235
				0.95084
				0.950292
				0.94565
				0.944591
				0.94083
				0.939227
				0.936474
				0.934299
				0.932669
				0.929903
				0.929496
				0.926133
				0.927036
				0.923078
				0.92536
				0.920823
				0.92452
				0.919436
				0.924539
				0.918959
				0.925412
				0.919401
				0.927112
				0.920746
				0.929593
				0.922953
				0.932791
				0.925964
				0.936629
				0.929701
				0.941019
				0.934074
				0.94587
				0.938983
				0.951088
				0.944331
				0.956584
				0.950021
				0.962277
				0.955962
				0.968092
				0.96207
				0.973959
				0.968271
				0.979818
				0.974496
				0.985613
				0.980683
				0.991295
				0.986776
				0.996818
				0.992725
				1.00214
				0.998487
				1.00724
				1.00402
				1.01207
				1.00929
				1.01661
				1.01427
				1.02083
				1.01893
				1.02473
				1.02325
				1.02827
				1.02721
				1.03146
				1.03079
				1.03427
				1.03398
				1.03669
				1.03677
				1.03872
				1.03914
				1.04035
				1.04109
				1.04158
				1.04261
				1.0424
				1.04371
				1.04281
				1.04436
				1.04281
				1.04458
				1.0424
				1.04436
				1.04158
				1.04371
				1.04035
				1.04262
				1.03872
				1.04109
				1.03669
				1.03914
				1.03427
				1.03677
				1.03146
				1.03398
				1.02828
				1.03079
				1.02473
				1.02721
				1.02084
				1.02325
				1.01661
				1.01893
				1.01207
				1.01427
				1.00724
				1.00929
				1.00215
				1.00402
				0.99682
				0.998489
				0.991297
				0.992727
				0.985615
				0.986778
				0.97982
				0.980685
				0.973962
				0.974499
				0.968095
				0.968274
				0.96228
				0.962073
				0.956587
				0.955965
				0.951091
				0.950024
				0.945873
				0.944335
				0.941023
				0.938987
				0.936632
				0.934077
				0.932795
				0.929705
				0.929597
				0.925968
				0.927117
				0.922957
				0.925416
				0.92075
				0.924543
				0.919406
				0.924524
				0.918963
				0.925364
				0.91944
				0.92704
				0.920827
				0.9295
				0.923082
				0.932672
				0.926137
				0.936478
				0.929907
				0.940834
				0.934303
				0.945653
				0.939231
				0.950843
				0.944595
				0.956311
				0.950295
				0.961972
				0.956238
				0.967753
				0.962341
				0.973589
				0.968529
				0.979415
				0.974734
				0.985174
				0.980893
				0.990814
				0.98695
				0.99629
				0.992853
				1.00156
				0.998561
				1.00661
				1.00404
				1.01138
				1.00925
				1.01587
				1.01417
				1.02005
				1.01877
				1.02391
				1.02304
				1.02742
				1.02696
				1.0306
				1.03051
				1.03343
				1.03369
				1.03593
				1.0365
				1.03809
				1.03893
				1.03984
				1.04101
				1.04104
				1.04271
				1.04173
				1.04379
				1.04223
				1.044
				1.03811
				1.03656
				1.03829
				1.03633
				1.03779
				1.03588
				1.03654
				1.03514
				1.03497
				1.03389
				1.0331
				1.03226
				1.03092
				1.03034
				1.02842
				1.02813
				1.0256
				1.02564
				1.02248
				1.02285
				1.01905
				1.01978
				1.01534
				1.01643
				1.01136
				1.01282
				1.00712
				1.00895
				1.00266
				1.00486
				0.997984
				1.00056
				0.993135
				0.996084
				0.988142
				0.991459
				0.983042
				0.986716
				0.977882
				0.981896
				0.972715
				0.977048
				0.9676
				0.972224
				0.962595
				0.967481
				0.957766
				0.962878
				0.953183
				0.958475
				0.948928
				0.954345
				0.945085
				0.950566
				0.941732
				0.947215
				0.938939
				0.944362
				0.93677
				0.942064
				0.935282
				0.940376
				0.934521
				0.939347
				0.93451
				0.939009
				0.935247
				0.939373
				0.936706
				0.940426
				0.938848
				0.942136
				0.941619
				0.944458
				0.944954
				0.947337
				0.948781
				0.950712
				0.953023
				0.954511
				0.957599
				0.958663
				0.962432
				0.963094
				0.967447
				0.967731
				0.972576
				0.972506
				0.977757
				0.977358
				0.982935
				0.982232
				0.98806
				0.987078
				0.993086
				0.991852
				0.997975
				0.996513
				1.00269
				1.00103
				1.0072
				1.00536
				1.01148
				1.00949
				1.01549
				1.01338
				1.01924
				1.01702
				1.02268
				1.0204
				1.02582
				1.02348
				1.02863
				1.02627
				1.03111
				1.02876
				1.03326
				1.03092
				1.03505
				1.03276
				1.03649
				1.03428
				1.03757
				1.03546
				1.0383
				1.03631
				1.03866
				1.03682
				1.03866
				1.03699
				1.0383
				1.03682
				1.03757
				1.03631
				1.03649
				1.03546
				1.03505
				1.03428
				1.03326
				1.03276
				1.03112
				1.03092
				1.02863
				1.02876
				1.02582
				1.02627
				1.02268
				1.02349
				1.01924
				1.0204
				1.0155
				1.01703
				1.01148
				1.01338
				1.0072
				1.00949
				1.00269
				1.00536
				0.997977
				1.00103
				0.993088
				0.996515
				0.988062
				0.991854
				0.982937
				0.98708
				0.977759
				0.982235
				0.972578
				0.977361
				0.96745
				0.972508
				0.962435
				0.967733
				0.957602
				0.963097
				0.953026
				0.958666
				0.948784
				0.954514
				0.944957
				0.950715
				0.941622
				0.947341
				0.938852
				0.944462
				0.93671
				0.94214
				0.93525
				0.94043
				0.934513
				0.939377
				0.934525
				0.939013
				0.935286
				0.93935
				0.936773
				0.94038
				0.938943
				0.942067
				0.941736
				0.944365
				0.945088
				0.947219
				0.948931
				0.950569
				0.953186
				0.954348
				0.957769
				0.958478
				0.962598
				0.962881
				0.967602
				0.967484
				0.972718
				0.972226
				0.977885
				0.97705
				0.983045
				0.981899
				0.988144
				0.986718
				0.993137
				0.99146
				0.997986
				0.996086
				1.00266
				1.00056
				1.00712
				1.00486
				1.01136
				1.00895
				1.01534
				1.01282
				1.01905
				1.01643
				1.02248
				1.01978
				1.0256
				1.02286
				1.02842
				1.02564
				1.03092
				1.02813
				1.0331
				1.03034
				1.03497
				1.03226
				1.03655
				1.03389
				1.03779
				1.03514
				1.03829
				1.03588
				1.03811
				1.03633
				1.03099
				1.03243
				1.03073
				1.03265
				1.03031
				1.03267
				1.0295
				1.03189
				1.02831
				1.0307
				1.02686
				1.0293
				1.02518
				1.02764
				1.02325
				1.02571
				1.02108
				1.02352
				1.01867
				1.02106
				1.01602
				1.01835
				1.01314
				1.0154
				1.01005
				1.01222
				1.00677
				1.00881
				1.0033
				1.00521
				0.999685
				1.00143
				0.995934
				0.99749
				0.992075
				0.993421
				0.988136
				0.989249
				0.984155
				0.98501
				0.980173
				0.980744
				0.976242
				0.976502
				0.97241
				0.972335
				0.968724
				0.968295
				0.965238
				0.964435
				0.962008
				0.960815
				0.9591
				0.957502
				0.956577
				0.954566
				0.954492
				0.952068
				0.952882
				0.95006
				0.951785
				0.948582
				0.951228
				0.947672
				0.951236
				0.947357
				0.951808
				0.947652
				0.952928
				0.948548
				0.954565
				0.950017
				0.956678
				0.952019
				0.959219
				0.954508
				0.962137
				0.95743
				0.965377