<VTKFile type="UnstructuredGrid" version="0.1" byte_order="LittleEndian">
<UnstructuredGrid>
	<Piece NumberOfPoints="4224" NumberOfCells="8192">
		<CellData Scalars="density" Vectors="velocity">
			<DataArray type="Float64" Name="density" Format="ascii">
				1.32359
				1.43038
				1.15796
				1.29695
				1.06311
				1.13865
				1.01291
				1.0523
				0.986203
				1.00852
				0.970322
				0.984679
				0.96031
				0.971016
				0.952454
				0.961539
				0.947161
				0.954365
				0.943913
				0.949741
				0.941326
				0.946692
				0.935706
				0.944129
				0.926042
				0.9364
				0.913464
				0.925674
				0.898596
				0.912264
				0.881977
				0.896743
				0.864032
				0.879609
				0.845192
				0.861295
				0.825806
				0.842215
				0.806215
				0.822723
				0.786715
				0.803156
				0.767535
				0.783796
				0.748939
				0.764893
				0.731162
				0.746702
				0.714411
				0.729454
				0.698889
				0.713354
				0.684771
				0.698594
				0.672276
				0.685359
				0.661594
				0.673849
				0.652861
				0.66422
				0.646194
				0.656588
				0.641735
				0.651063
				0.639496
				0.647718
				0.639513
				0.646559
				0.641694
				0.647553
				0.64595
				0.650609
				0.652193
				0.655633
				0.660261
				0.662516
				0.669908
				0.671085
				0.68092
				0.681124
				0.693128
				0.692402
				0.706382
				0.704769
				0.720541
				0.718081
				0.73545
				0.7322
				0.751032
				0.747005
				0.767206
				0.762411
				0.783856
				0.778332
				0.800975
				0.794692
				0.818442
				0.811437
				0.836253
				0.8285
				0.854363
				0.845849
				0.872756
				0.863456
				0.891414
				0.8813
				0.910296
				0.899362
				0.929409
				0.917614
				0.948732
				0.936055
				0.968235
				0.954666
				0.987874
				0.973419
				1.00759
				0.992273
				1.02724
				1.01117
				1.04655
				1.02998
				1.06514
				1.04843
				1.08255
				1.0662
				1.09301
				1.08279
				1.09297
				1.09313
				1.08336
				1.08356
				1.06602
				1.06704
				1.04745
				1.04929
				1.02819
				1.03087
				1.00856
				1.0121
				0.988867
				0.993221
				0.969238
				0.974377
				0.949747
				0.955636
				0.930436
				0.937037
				0.91134
				0.918613
				0.892472
				0.900374
				0.873835
				0.882331
				0.855465
				0.864509
				0.837383
				0.846927
				0.819592
				0.829601
				0.802173
				0.812577
				0.785099
				0.795871
				0.768478
				0.779547
				0.752352
				0.763665
				0.736821
				0.748307
				0.721965
				0.733549
				0.707866
				0.719487
				0.694684
				0.706237
				0.682533
				0.69393
				0.671591
				0.682712
				0.662015
				0.672741
				0.654015
				0.664236
				0.647839
				0.657416
				0.643646
				0.652455
				0.641525
				0.64946
				0.64156
				0.648522
				0.643843
				0.64973
				0.648338
				0.653119
				0.655033
				0.658678
				0.663787
				0.666339
				0.674486
				0.675993
				0.686995
				0.687524
				0.701125
				0.700777
				0.716661
				0.715556
				0.733428
				0.731677
				0.751224
				0.748948
				0.769844
				0.767164
				0.78905
				0.786097
				0.808581
				0.805489
				0.828208
				0.825092
				0.847632
				0.844623
				0.86651
				0.863742
				0.884527
				0.882116
				0.901222
				0.89932
				0.916206
				0.91494
				0.928973
				0.928508
				0.938957
				0.939498
				0.944809
				0.947986
				0.947037
				0.949804
				0.949726
				0.952548
				0.954046
				0.956195
				0.960481
				0.962211
				0.967989
				0.969492
				0.981256
				0.980411
				1.00401
				1.00084
				1.04344
				1.03551
				1.11817
				1.10233
				1.33387
				1.24126
				1.28443
				1.34668
				1.03104
				1.25349
				0.984409
				1.02146
				1.01049
				0.983184
				1.07745
				1.01189
				1.05825
				1.06025
				1.10231
				1.09831
				1.11672
				1.11739
				1.14584
				1.15166
				1.1844
				1.18216
				1.4311
				1.37465
				1.17111
				1.48082
				1.08879
				1.16111
				1.03733
				1.08139
				0.997363
				1.0297
				0.96387
				0.989232
				0.934739
				0.955133
				0.908859
				0.925359
				0.885563
				0.898833
				0.864411
				0.874921
				0.84511
				0.853209
				0.827478
				0.833429
				0.811409
				0.815414
				0.796868
				0.799077
				0.78387
				0.784393
				0.772464
				0.77138
				0.762731
				0.760097
				0.754773
				0.75063
				0.748702
				0.743093
				0.744625
				0.737597
				0.742634
				0.734241
				0.742793
				0.733116
				0.74513
				0.734268
				0.749613
				0.737697
				0.756156
				0.743335
				0.764627
				0.751056
				0.774877
				0.760707
				0.78675
				0.772105
				0.800005
				0.784965
				0.814294
				0.798948
				0.829432
				0.813899
				0.845222
				0.829612
				0.861481
				0.845899
				0.878036
				0.862567
				0.89473
				0.879452
				0.911418
				0.89641
				0.927962
				0.913286
				0.944239
				0.929957
				0.960129
				0.946292
				0.975535
				0.962181
				0.990364
				0.977529
				1.00454
				0.992247
				1.01798
				1.00626
				1.03063
				1.01949
				1.04245
				1.03189
				1.05337
				1.04343
				1.06336
				1.05405
				1.07237
				1.06374
				1.0803
				1.07248
				1.08708
				1.08021
				1.09254
				1.08691
				1.09622
				1.09251
				1.09658
				1.09655
				1.09626
				1.09906
				1.09624
				1.09537
				1.09643
				1.09889
				1.09633
				1.09672
				1.09276
				1.09276
				1.08737
				1.0872
				1.08065
				1.08056
				1.07278
				1.07287
				1.06383
				1.06419
				1.05389
				1.05456
				1.04302
				1.04398
				1.03126
				1.0325
				1.01866
				1.02015
				1.00527
				1.00697
				0.991149
				0.993019
				0.976376
				0.978359
				0.961027
				0.963069
				0.945198
				0.947239
				0.928987
				0.930973
				0.912507
				0.91437
				0.895885
				0.89756
				0.879259
				0.880673
				0.862776
				0.863861
				0.84659
				0.847267
				0.830875
				0.831062
				0.815813
				0.815428
				0.801598
				0.800556
				0.788419
				0.786653
				0.776615
				0.773877
				0.766432
				0.762555
				0.758022
				0.752973
				0.751531
				0.745313
				0.747089
				0.739725
				0.744782
				0.736334
				0.744641
				0.735206
				0.74664
				0.736344
				0.750716
				0.739701
				0.756779
				0.74519
				0.764725
				0.752715
				0.774444
				0.762166
				0.785836
				0.773433
				0.798823
				0.786431
				0.813356
				0.801105
				0.829422
				0.817437
				0.847059
				0.835455
				0.866375
				0.855247
				0.887551
				0.876981
				0.910884
				0.900927
				0.936818
				0.927504
				0.966015
				0.957343
				0.999592
				0.991521
				1.03965
				1.03209
				1.09127
				1.08392
				1.17523
				1.16443
				1.42963
				1.55346
				1.19511
				1.35054
				1.1572
				1.19305
				1.12226
				1.16443
				1.09959
				1.12258
				1.05311
				1.10029
				1.0722
				1.07005
				1.02159
				1.01707
				0.983218
				0.983235
				0.99468
				0.99163
				1.24041
				1.14253
				1.23758
				1.219
				0.997254
				1.09853
				0.972567
				0.974547
				1.04654
				0.988717
				1.08571
				1.06631
				1.05741
				1.0539
				1.12776
				1.11455
				1.12892
				1.1327
				1.11798
				1.17186
				1.12089
				1.15088
				1.11705
				1.13409
				1.00963
				1.03141
				0.964258
				0.98577
				0.939279
				0.959428
				0.92333
				0.942138
				0.912522
				0.930104
				0.904884
				0.921427
				0.89919
				0.914919
				0.894597
				0.909746
				0.890493
				0.905287
				0.886447
				0.901078
				0.882182
				0.896792
				0.877557
				0.892235
				0.872551
				0.887334
				0.867254
				0.882131
				0.861824
				0.876746
				0.856492
				0.871382
				0.851508
				0.866271
				0.847141
				0.861664
				0.843646
				0.857801
				0.841253
				0.854902
				0.840148
				0.853134
				0.840459
				0.852621
				0.842252
				0.853425
				0.845521
				0.855546
				0.850211
				0.858944
				0.856333
				0.863563
				0.8637
				0.869368
				0.872197
				0.876271
				0.881803
				0.884249
				0.892328
				0.89315
				0.903594
				0.902811
				0.915429
				0.913079
				0.927678
				0.923809
				0.940197
				0.934864
				0.952851
				0.946114
				0.965519
				0.95744
				0.978083
				0.968728
				0.990438
				0.979872
				1.00249
				0.990773
				1.01413
				1.00134
				1.0253
				1.01147
				1.03589
				1.0211
				1.04584
				1.03015
				1.05508
				1.03854
				1.06353
				1.04623
				1.07115
				1.05315
				1.07786
				1.05927
				1.0836
				1.06455
				1.0883
				1.069
				1.09193
				1.07259
				1.09442
				1.0754
				1.09402
				1.07779
				1.09442
				1.07899
				1.0944
				1.08149
				1.09394
				1.0791
				1.09444
				1.07784
				1.09204
				1.07549
				1.08848
				1.07272
				1.08384
				1.06918
				1.07815
				1.06478
				1.07149
				1.05954
				1.06392
				1.05347
				1.05551
				1.04659
				1.04632
				1.03895
				1.03642
				1.0306
				1.02588
				1.02161
				1.01477
				1.01203
				1.00318
				1.00194
				0.991184
				0.991432
				0.978884
				0.980586
				0.96638
				0.969496
				0.953774
				0.958265
				0.941183
				0.946999
				0.92873
				0.93581
				0.916551
				0.924819
				0.904787
				0.914155
				0.893596
				0.903954
				0.883146
				0.894362
				0.873617
				0.885533
				0.865195
				0.877627
				0.85791
				0.870796
				0.851863
				0.865066
				0.847242
				0.86052
				0.844031
				0.857188
				0.842282
				0.855123
				0.841998
				0.854363
				0.843116
				0.854906
				0.845503
				0.856688
				0.848978
				0.859588
				0.85331
				0.863436
				0.858249
				0.868016
				0.863526
				0.873089
				0.868892
				0.878405
				0.874122
				0.883736
				0.87906
				0.888883
				0.883622
				0.893728
				0.887834
				0.898238
				0.891842
				0.902486
				0.895932
				0.906681
				0.900544
				0.911151
				0.906299
				0.916372
				0.914057
				0.922975
				0.925088
				0.931814
				0.941434
				0.944111
				0.96724
				0.961838
				1.01533
				0.98903
				1.12702
				1.03683
				1.12896
				1.14317
				1.13248
				1.16143
				1.1008
				1.13526
				1.09759
				1.10097
				1.05263
				1.08492
				1.07238
				1.05103
				1.06666
				1.06426
				0.992674
				1.01902
				0.964487
				0.972618
				1.1917
				1.05914
				1.14278
				1.20454
				1.01293
				1.08281
				0.91686
				0.938029
				1.04452
				0.826211
				1.07182
				1.0531
				1.05529
				1.05462
				1.15344
				1.17652
				1.13712
				1.15152
				1.0985
				1.13616
				1.05282
				1.09708
				0.999461
				1.05132
				0.974144
				0.997941
				0.960977
				0.972339
				0.953442
				0.958581
				0.948498
				0.950347
				0.944451
				0.944658
				0.940274
				0.939855
				0.935358
				0.934928
				0.929402
				0.92928
				0.92233
				0.922617
				0.91423
				0.914869
				0.905302
				0.906134
				0.895816
				0.896622
				0.886082
				0.886619
				0.876426
				0.876455
				0.867178
				0.866478
				0.858653
				0.857039
				0.851149
				0.848473
				0.844934
				0.841094
				0.840234
				0.835177
				0.837232
				0.830947
				0.83605
				0.828575
				0.836746
				0.828161
				0.839318
				0.829733
				0.843704
				0.833254
				0.849872
				0.838642
				0.85747
				0.845689
				0.86612
				0.854004
				0.875671
				0.863357
				0.885967
				0.873578
				0.896857
				0.884504
				0.908193
				0.895974
				0.919839
				0.907838
				0.931666
				0.919955
				0.943557
				0.932199
				0.955406
				0.94445
				0.967116
				0.956604
				0.978598
				0.968564
				0.989773
				0.980243
				1.00057
				0.991561
				1.01092
				1.00245
				1.02076
				1.01284
				1.03004
				1.02269
				1.03872
				1.03193
				1.04674
				1.04053
				1.05406
				1.04844
				1.06064
				1.05564
				1.06641
				1.06208
				1.07133
				1.06773
				1.07527
				1.07254
				1.07804
				1.07646
				1.07934
				1.07935
				1.08018
				1.08158
				1.08119
				1.08101
				1.08121
				1.08139
				1.08033
				1.081
				1.07937
				1.08159
				1.07816
				1.07946
				1.07545
				1.07665
				1.07156
				1.07277
				1.06668
				1.068
				1.06094
				1.06239
				1.0544
				1.05598
				1.04713
				1.04883
				1.03915
				1.04095
				1.03052
				1.0324
				1.02128
				1.0232
				1.01149
				1.01341
				1.00119
				1.00307
				0.990446
				0.992232
				0.979325
				0.980968
				0.967899
				0.969347
				0.956248
				0.957447
				0.94446
				0.945355
				0.932631
				0.933168
				0.92087
				0.920993
				0.909292
				0.908945
				0.898025
				0.897154
				0.887208
				0.88576
				0.876984
				0.874911
				0.867506
				0.864766
				0.858926
				0.855491
				0.851395
				0.84725
				0.845283
				0.84027
				0.840948
				0.834942
				0.838419
				0.831472
				0.837756
				0.829941
				0.838961
				0.830384
				0.841975
				0.832775
				0.846677
				0.83701
				0.852885
				0.842923
				0.860374
				0.850286
				0.868876
				0.858829
				0.878096
				0.868237
				0.887717
				0.878176
				0.897412
				0.888296
				0.906855
				0.898251
				0.915736
				0.907711
				0.923788
				0.916394
				0.930814
				0.924092
				0.936732
				0.930714
				0.941626
				0.936339
				0.94581
				0.941273
				0.949913
				0.946136
				0.954999
				0.951973
				0.962833
				0.960517
				0.976665
				0.974954
				1.0037
				1.00227
				1.06077
				1.05936
				1.10974
				1.10863
				1.13265
				1.13206
				1.14551
				1.14405
				1.04506
				1.12398
				1.05959
				1.04525
				1.05167
				1.06087
				1.03035
				1.02786
				0.991313
				0.943528
				1.12854
				1.04612
				1.1421
				1.13243
				1.01671
				1.07438
				0.939865
				0.98074
				1.04676
				1.04284
				1.07825
				1.15633
				1.06031
				1.09583
				1.07296
				1.09295
				1.05089
				1.06828
				1.01688
				1.03143
				0.983662
				0.996307
				0.958072
				0.969156
				0.946575
				0.956687
				0.941898
				0.951563
				0.94026
				0.949766
				0.939652
				0.949176
				0.939009
				0.948665
				0.937814
				0.947677
				0.935896
				0.946008
				0.93328
				0.943656
				0.930086
				0.940721
				0.926467
				0.937341
				0.922561
				0.933649
				0.918489
				0.929758
				0.914345
				0.925763
				0.91021
				0.921736
				0.906166
				0.917752
				0.902303
				0.913887
				0.898731
				0.910234
				0.895573
				0.9069
				0.89297
				0.904006
				0.891059
				0.901675
				0.889967
				0.900024
				0.889797
				0.899151
				0.89061
				0.899122
				0.892437
				0.899976
				0.89537
				0.901753
				0.899419
				0.90459
				0.904649
				0.908527
				0.910911
				0.913482
				0.918051
				0.919319
				0.925917
				0.925897
				0.934362
				0.933081
				0.943251
				0.940743
				0.952457
				0.948762
				0.961864
				0.957026
				0.971365
				0.96543
				0.980862
				0.973878
				0.990265
				0.98228
				0.999491
				0.990555
				1.00847
				0.998626
				1.01712
				1.00642
				1.0254
				1.01388
				1.03323
				1.02095
				1.04057
				1.02758
				1.04738
				1.03372
				1.0536
				1.03934
				1.05921
				1.04441
				1.06415
				1.04892
				1.06838
				1.05285
				1.07179
				1.05621
				1.0742
				1.05902
				1.07533
				1.06114
				1.07668
				1.06264
				1.07761
				1.06525
				1.07762
				1.06565
				1.07683
				1.06533
				1.0754
				1.06278
				1.07432
				1.06124
				1.07194
				1.05914
				1.06856
				1.05635
				1.06436
				1.05302
				1.05946
				1.04912
				1.05389
				1.04464
				1.0477
				1.0396
				1.04094
				1.03402
				1.03364
				1.02792
				1.02584
				1.02134
				1.01762
				1.01431
				1.00901
				1.0069
				1.00008
				0.999143
				0.990898
				0.991118
				0.981545
				0.982891
				0.972101
				0.974537
				0.962654
				0.96614
				0.953303
				0.957788
				0.944155
				0.949579
				0.935325
				0.941616
				0.926941
				0.934011
				0.919138
				0.926885
				0.912061
				0.920366
				0.905862
				0.914589
				0.900691
				0.909691
				0.896697
				0.905811
				0.893817
				0.903027
				0.892034
				0.901298
				0.891252
				0.900484
				0.891442
				0.900543
				0.89254
				0.901435
				0.894446
				0.903093
				0.897032
				0.905419
				0.900164
				0.908299
				0.903704
				0.911611
				0.907529
				0.915235
				0.911534
				0.919067
				0.915628
				0.923015
				0.919731
				0.927005
				0.923762
				0.930964
				0.927625
				0.934816
				0.9312
				0.938469
				0.934345
				0.941807
				0.93691
				0.944696
				0.938774
				0.946997
				0.939919
				0.948612
				0.940534
				0.949545
				0.941164
				0.950015
				0.942942
				0.950604
				0.948038
				0.9525
				0.960655
				0.957977
				0.98875
				0.971466
				1.02541
				1.00098
				1.05617
				1.03916
				1.07628
				1.0724
				1.05276
				1.09138
				1.06236
				1.08892
				1.0528
				1.12654
				1.03172
				1.0252
				0.988385
				0.93207
				1.12606
				1.058
				1.10667
				1.13823
				1.0285
				1.07605
				0.965529
				0.966343
				1.08669
				1.04247
				1.09071
				1.10705
				1.06898
				1.0888
				1.03947
				1.06715
				1.00843
				1.0377
				0.983871
				1.00674
				0.969171
				0.982258
				0.963509
				0.967562
				0.962273
				0.961798
				0.962789
				0.960348
				0.963577
				0.960559
				0.96385
				0.960972
				0.963229
				0.960818
				0.961568
				0.959735
				0.958847
				0.957591
				0.955117
				0.954381
				0.950464
				0.950168
				0.945008
				0.94505
				0.938896
				0.939158
				0.932304
				0.932652
				0.925436
				0.925718
				0.918515
				0.918572
				0.911781
				0.911447
				0.905475
				0.904596
				0.899834
				0.898271
				0.895082
				0.892722
				0.891412
				0.888176
				0.88899
				0.884833
				0.887929
				0.882851
				0.888299
				0.882333
				0.890113
				0.883329
				0.893392
				0.885838
				0.897956
				0.889768
				0.903376
				0.894802
				0.909579
				0.900721
				0.916467
				0.907428
				0.923931
				0.914809
				0.931859
				0.922742
				0.940142
				0.931109
				0.948673
				0.939793
				0.957352
				0.948688
				0.966087
				0.957691
				0.974794
				0.966708
				0.983395
				0.975656
				0.991821
				0.984458
				1.00001
				0.993045
				1.0079
				1.00135
				1.01545
				1.00933
				1.0226
				1.01693
				1.02933
				1.0241
				1.03559
				1.03082
				1.04136
				1.03704
				1.0466
				1.04275
				1.0513
				1.04793
				1.05541
				1.05255
				1.05889
				1.05661
				1.06168
				1.06006
				1.06364
				1.06279
				1.06409
				1.0645
				1.06577
				1.06492
				1.0665
				1.06626
				1.06653
				1.06652
				1.06585
				1.06629
				1.06408
				1.06504
				1.06371
				1.06458
				1.06179
				1.06291
				1.05904
				1.06021
				1.05559
				1.05679
				1.05152
				1.05277
				1.04685
				1.04818
				1.04164
				1.04304
				1.03591
				1.03736
				1.02969
				1.03117
				1.023
				1.0245
				1.01588
				1.01736
				1.00838
				1.00981
				1.00053
				1.00187
				0.992386
				0.99361
				0.984006
				0.98507
				0.975453
				0.976317
				0.966796
				0.96742
				0.958113
				0.958455
				0.949487
				0.949508
				0.941012
				0.940671
				0.932786
				0.932045
				0.924915
				0.923739
				0.917509
				0.915867
				0.910678
				0.908547
				0.90453
				0.901899
				0.89916
				0.896036
				0.894642
				0.891054
				0.891401
				0.88717
				0.889618
				0.884698
				0.889271
				0.883731
				0.890346
				0.884269
				0.892774
				0.886262
				0.896441
				0.889606
				0.901183
				0.894143
				0.906805
				0.899675
				0.913085
				0.905975
				0.919787
				0.912793
				0.926669
				0.919878
				0.933491
				0.926978
				0.94003
				0.933859
				0.946081
				0.940304
				0.95147
				0.946128
				0.956046
				0.951171
				0.959689
				0.955301
				0.962311
				0.958416
				0.963861
				0.960454
				0.964358
				0.96142
				0.963954
				0.961451
				0.963045
				0.960927
				0.962462
				0.960659
				0.96379
				0.962208
				0.969961
				0.968481
				0.98606
				0.984566
				1.01292
				1.01134
				1.04399
				1.04229
				1.07152
				1.06971
				1.09017
				1.0882
				1.08821
				1.10655
				0.995057
				1.02553
				1.02393
				0.942458
				1.10561
				1.06321
				1.1135
				1.11155
				1.03833
				1.07159
				1.0186
				1.03073
				1.01898
				1.09197
				1.0381
				1.06137
				1.02054
				1.03871
				0.997177
				1.01217
				0.976565
				0.989084
				0.963197
				0.973796
				0.957443
				0.966583
				0.956731
				0.964899
				0.958088
				0.965657
				0.959847
				0.967078
				0.961173
				0.968255
				0.961717
				0.968783
				0.961402
				0.968543
				0.960291
				0.967562
				0.958512
				0.965941
				0.956213
				0.963814
				0.953543
				0.961316
				0.950643
				0.95858
				0.947635
				0.955721
				0.94462
				0.952834
				0.941679
				0.949993
				0.938871
				0.947251
				0.936245
				0.944648
				0.933837
				0.94221
				0.931685
				0.939967
				0.929831
				0.937947
				0.928323
				0.936188
				0.927217
				0.934735
				0.926571
				0.933642
				0.926444
				0.932962
				0.926887
				0.932747
				0.927958
				0.933058
				0.929783
				0.934025
				0.932572
				0.93584
				0.936238
				0.938518
				0.940678
				0.941968
				0.945784
				0.946091
				0.951447
				0.950785
				0.957557
				0.95595
				0.96401
				0.961487
				0.97071
				0.967301
				0.977565
				0.973305
				0.984491
				0.979415
				0.991411
				0.985556
				0.998256
				0.991657
				1.00496
				0.997655
				1.01147
				1.00349
				1.01773
				1.00912
				1.0237
				1.01448
				1.02934
				1.01956
				1.03461
				1.0243
				1.03949
				1.02868
				1.04394
				1.03269
				1.04795
				1.0363
				1.05149
				1.03953
				1.05453
				1.04236
				1.05703
				1.04483
				1.05895
				1.04691
				1.05944
				1.04887
				1.06105
				1.05027
				1.0617
				1.05145
				1.06172
				1.05167
				1.06112
				1.05148
				1.05942
				1.05031
				1.05901
				1.04895
				1.05713
				1.047
				1.05466
				1.04494
				1.05165
				1.04249
				1.04814
				1.03968
				1.04416
				1.03648
				1.03973
				1.03289
				1.03489
				1.02891
				1.02965
				1.02456
				1.02404
				1.01985
				1.01811
				1.01482
				1.01188
				1.00948
				1.00541
				1.00389
				0.998746
				0.998094
				0.991942
				0.992134
				0.985063
				0.986072
				0.978181
				0.979972
				0.97137
				0.973904
				0.964715
				0.967943
				0.958308
				0.962172
				0.952244
				0.956679
				0.946628
				0.951558
				0.941567
				0.946907
				0.937171
				0.942827
				0.933546
				0.939418
				0.930794
				0.936777
				0.929
				0.934995
				0.927954
				0.934056
				0.927527
				0.933766
				0.927662
				0.933994
				0.928307
				0.93468
				0.929405
				0.935772
				0.930899
				0.937215
				0.932733
				0.938959
				0.93486
				0.94096
				0.937241
				0.94318
				0.939839
				0.945591
				0.942616
				0.948166
				0.945525
				0.950876
				0.948505
				0.953684
				0.951473
				0.956533
				0.954327
				0.959348
				0.956942
				0.962033
				0.959175
				0.964468
				0.960874
				0.96652
				0.96189
				0.968048
				0.962094
				0.968919
				0.961428
				0.969031
				0.959982
				0.968361
				0.958138
				0.967042
				0.956805
				0.965513
				0.957815
				0.964755
				0.964441
				0.966718
				0.979433
				0.974793
				1.00094
				0.991661
				1.02353
				1.01552
				1.03738
				1.04083
				1.01793
				1.05859
				1.07571
				1.06115
				1.03413
				1.03933
				1.11257
				1.07612
				1.09764
				1.11819
				1.05892
				1.08079
				1.09172
				1.0416
				1.05812
				1.10006
				1.03044
				1.05682
				1.00556
				1.02906
				0.987642
				1.00409
				0.977899
				0.986114
				0.974585
				0.976321
				0.974764
				0.972943
				0.976162
				0.973036
				0.977592
				0.974322
				0.978524
				0.975612
				0.978773
				0.976374
				0.978317
				0.976426
				0.977199
				0.975749
				0.975476
				0.974389
				0.9732
				0.97241
				0.970416
				0.969871
				0.967167
				0.966824
				0.963498
				0.963318
				0.959468
				0.959408
				0.955157
				0.955161
				0.950666
				0.950664
				0.946124
				0.946027
				0.941678
				0.941386
				0.93749
				0.936896
				0.933729
				0.932728
				0.930557
				0.929055
				0.928122
				0.926042
				0.926548
				0.923839
				0.925925
				0.922567
				0.926307
				0.92231
				0.927708
				0.92311
				0.93022
				0.924988
				0.933404
				0.927791
				0.937164
				0.931265
				0.941464
				0.935347
				0.946248
				0.939982
				0.951452
				0.945103
				0.957
				0.950634
				0.962818
				0.956492
				0.968829
				0.962598
				0.97496
				0.96887
				0.981141
				0.975235
				0.987308
				0.981621
				0.993402
				0.987965
				0.999369
				0.994206
				1.00516
				1.00029
				1.01074
				1.00618
				1.01606
				1.01182
				1.02109
				1.01718
				1.0258
				1.02223
				1.03018
				1.02694
				1.0342
				1.03131
				1.03784
				1.0353
				1.04109
				1.03891
				1.04393
				1.04212
				1.04631
				1.04491
				1.04817
				1.04726
				1.04932
				1.04908
				1.05062
				1.05052
				1.05158
				1.05119
				1.05201
				1.05182
				1.05203
				1.05202
				1.05162
				1.05185
				1.05073
				1.05122
				1.04936
				1.05058
				1.04826
				1.04916
				1.04643
				1.04737
				1.04407
				1.04506
				1.04125
				1.04228
				1.03803
				1.03909
				1.03441
				1.03551
				1.03042
				1.03155
				1.02607
				1.02721
				1.02139
				1.02253
				1.01639
				1.01751
				1.0111
				1.01218
				1.00556
				1.00657
				0.999802
				1.00072
				0.993871
				0.994676
				0.987815
				0.988473
				0.981687
				0.98217
				0.975545
				0.975825
				0.969455
				0.969502
				0.963486
				0.963272
				0.95771
				0.957211
				0.952203
				0.951396
				0.94704
				0.945909
				0.942295
				0.94083
				0.938032
				0.936235
				0.934305
				0.93219
				0.931151
				0.928749
				0.928664
				0.925975
				0.92728
				0.92412
				0.92691
				0.923335
				0.927537
				0.923602
				0.92911
				0.924876
				0.931536
				0.927073
				0.934692
				0.930072
				0.93843
				0.933725
				0.942589
				0.937865
				0.947
				0.94232
				0.9515
				0.94692
				0.955943
				0.95151
				0.960201
				0.955955
				0.964172
				0.960145
				0.967778
				0.963992
				0.970957
				0.967429
				0.973665
				0.9704
				0.975856
				0.972856
				0.977485
				0.974741
				0.978497
				0.975994
				0.978835
				0.976553
				0.97846
				0.976372
				0.977404
				0.975478
				0.975874
				0.97408
				0.974454
				0.972759
				0.974452
				0.972824
				0.97836
				0.97677
				0.989316
				0.987746
				1.00836
				1.00681
				1.03321
				1.03173
				1.05835
				1.05692
				1.08919
				1.09518
				1.07302
				1.05585
				1.10663
				1.08704
				1.09857
				1.10267
				1.05918
				1.07692
				1.06913
				1.07341
				1.03023
				1.04182
				1.0036
				1.01542
				0.98374
				0.994714
				0.972488
				0.98227
				0.968578
				0.977221
				0.969133
				0.976836
				0.971409
				0.978407
				0.973815
				0.980303
				0.975668
				0.981796
				0.976772
				0.982655
				0.977142
				0.982869
				0.976875
				0.98251
				0.976078
				0.98167
				0.974853
				0.980438
				0.973292
				0.978894
				0.971479
				0.977116
				0.969494
				0.975177
				0.967417
				0.973148
				0.965323
				0.971098
				0.963279
				0.96909
				0.961343
				0.967174
				0.959559
				0.965387
				0.957958
				0.963754
				0.956558
				0.962287
				0.95537
				0.960988
				0.954398
				0.959856
				0.953651
				0.95889
				0.953138
				0.958097
				0.952877
				0.957489
				0.952895
				0.957091
				0.953223
				0.956935
				0.95388
				0.957075
				0.955153
				0.957686
				0.957079
				0.958911
				0.959603
				0.960728
				0.962662
				0.963079
				0.966188
				0.965901
				0.970108
				0.969128
				0.974348
				0.972692
				0.978837
				0.976523
				0.983505
				0.980557
				0.988286
				0.984728
				0.993118
				0.988976
				0.997945
				0.993247
				1.00271
				0.997487
				1.00738
				1.00165
				1.0119
				1.0057
				1.01624
				1.00959
				1.02037
				1.01329
				1.02426
				1.01678
				1.02789
				1.02003
				1.03124
				1.02303
				1.03429
				1.02577
				1.03704
				1.02825
				1.03947
				1.03046
				1.04157
				1.03243
				1.04325
				1.03416
				1.04431
				1.0357
				1.04569
				1.03687
				1.0465
				1.03852
				1.04687
				1.03896
				1.04688
				1.0391
				1.04653
				1.03897
				1.0458
				1.03858
				1.04435
				1.03694
				1.04334
				1.03578
				1.04167
				1.03425
				1.03959
				1.03253
				1.03718
				1.03058
				1.03445
				1.02839
				1.03142
				1.02593
				1.0281
				1.02321
				1.02449
				1.02024
				1.02063
				1.01701
				1.01653
				1.01354
				1.01222
				1.00987
				1.00773
				1.00601
				1.00309
				1.00199
				0.998352
				0.997855
				0.993557
				0.993645
				0.988757
				0.989406
				0.984009
				0.985188
				0.979374
				0.981048
				0.974917
				0.977046
				0.970709
				0.973245
				0.966821
				0.969712
				0.963325
				0.966514
				0.960293
				0.963718
				0.957794
				0.961392
				0.955888
				0.959597
				0.954632
				0.95839
				0.953985
				0.957792
				0.953662
				0.957659
				0.953644
				0.957817
				0.9539
				0.958214
				0.954404
				0.958815
				0.955139
				0.959598
				0.956094
				0.960549
				0.957263
				0.961663
				0.958642
				0.962942
				0.96022
				0.964387
				0.961978
				0.965995
				0.963885
				0.967754
				0.965898
				0.96964
				0.967956
				0.971614
				0.969994
				0.973626
				0.971934
				0.975612
				0.973698
				0.977504
				0.975204
				0.979229
				0.976368
				0.980715
				0.977096
				0.981883
				0.977289
				0.982654
				0.976837
				0.98294
				0.975651
				0.98265
				0.973728
				0.981719
				0.9713
				0.980173
				0.969127
				0.978282
				0.968956
				0.976858
				0.973732
				0.977694
				0.98601
				0.983705
				1.0061
				0.997298
				1.03023
				1.01837
				1.06249
				1.0424
				1.0738
				1.07591
				1.10694
				1.09229
				1.09125
				1.10426
				1.07614
				1.08084
				1.04056
				1.07383
				1.01192
				1.03996
				0.993195
				1.01122
				0.984118
				0.992359
				0.981894
				0.983162
				0.983114
				0.98082
				0.985303
				0.981922
				0.987271
				0.983997
				0.988604
				0.985853
				0.989248
				0.987072
				0.98928
				0.987601
				0.9888
				0.987513
				0.987893
				0.986907
				0.986626
				0.985869
				0.985045
				0.984467
				0.983185
				0.982748
				0.981071
				0.98075
				0.978726
				0.978501
				0.976174
				0.976028
				0.973447
				0.97336
				0.970587
				0.970532
				0.967649
				0.96759
				0.964708
				0.964597
				0.961851
				0.961629
				0.959182
				0.958781
				0.956809
				0.956157
				0.954843
				0.95387
				0.953381
				0.952031
				0.95251
				0.950739
				0.952288
				0.950076
				0.952753
				0.9501