<VTKFile type="UnstructuredGrid" version="0.1" byte_order="LittleEndian">
<UnstructuredGrid>
	<Piece NumberOfPoints="4224" NumberOfCells="8192">
		<CellData Scalars="density" Vectors="velocity">
			<DataArray type="Float64" Name="density" Format="ascii">
				1.00232
				1.00232
				1.00222
				1.00227
				1.00195
				1.0021
				1.00141
				1.00173
				1.00048
				1.00105
				0.999063
				0.999944
				0.997047
				0.998317
				0.994344
				0.996078
				0.990866
				0.993142
				0.986534
				0.989429
				0.981281
				0.984868
				0.975054
				0.979404
				0.967834
				0.973003
				0.959619
				0.965653
				0.950429
				0.957365
				0.94032
				0.948174
				0.929353
				0.938141
				0.917638
				0.927344
				0.905278
				0.915889
				0.892419
				0.903896
				0.879213
				0.891504
				0.865802
				0.878864
				0.852385
				0.866137
				0.839162
				0.853508
				0.826334
				0.841174
				0.81413
				0.829339
				0.80276
				0.81822
				0.79251
				0.808044
				0.78365
				0.79907
				0.776415
				0.791542
				0.771023
				0.785679
				0.767753
				0.781697
				0.766677
				0.779773
				0.767932
				0.779988
				0.771421
				0.782364
				0.777027
				0.786804
				0.784604
				0.793174
				0.793929
				0.801294
				0.804701
				0.81093
				0.816701
				0.821835
				0.829692
				0.833795
				0.843465
				0.846597
				0.857819
				0.860047
				0.872533
				0.873954
				0.887475
				0.888146
				0.902504
				0.902488
				0.917445
				0.916839
				0.93223
				0.931069
				0.946682
				0.945071
				0.960734
				0.958727
				0.974275
				0.971947
				0.987225
				0.98464
				0.999497
				0.996725
				1.01101
				1.00812
				1.02169
				1.01876
				1.03149
				1.02858
				1.04035
				1.03752
				1.04821
				1.04553
				1.05502
				1.05257
				1.06076
				1.05859
				1.0654
				1.06356
				1.06889
				1.06745
				1.07123
				1.07025
				1.07241
				1.07194
				1.07241
				1.0725
				1.07123
				1.07194
				1.06889
				1.07025
				1.0654
				1.06745
				1.06076
				1.06356
				1.05502
				1.05859
				1.04821
				1.05257
				1.04035
				1.04553
				1.03149
				1.03752
				1.02169
				1.02858
				1.01101
				1.01876
				0.999497
				1.00812
				0.987225
				0.996725
				0.974276
				0.98464
				0.960736
				0.971948
				0.946674
				0.958724
				0.932231
				0.94507
				0.917453
				0.931072
				0.902501
				0.916839
				0.887474
				0.902487
				0.872532
				0.888146
				0.857817
				0.873953
				0.843463
				0.860045
				0.829702
				0.846601
				0.816697
				0.833795
				0.8047
				0.821834
				0.793929
				0.810929
				0.784603
				0.801294
				0.777028
				0.793174
				0.771421
				0.786804
				0.767932
				0.782364
				0.766677
				0.779988
				0.767753
				0.779773
				0.771023
				0.781697
				0.776415
				0.785679
				0.78365
				0.791542
				0.79251
				0.79907
				0.802761
				0.808044
				0.81413
				0.81822
				0.826334
				0.82934
				0.839162
				0.841175
				0.852386
				0.853509
				0.865802
				0.866137
				0.879213
				0.878865
				0.892419
				0.891505
				0.905278
				0.903896
				0.917639
				0.915889
				0.929349
				0.927343
				0.940322
				0.93814
				0.950429
				0.948174
				0.959619
				0.957365
				0.967834
				0.965653
				0.975054
				0.973003
				0.981281
				0.979404
				0.986533
				0.984868
				0.990867
				0.989429
				0.994344
				0.993142
				0.997047
				0.996078
				0.999063
				0.998317
				1.00048
				0.999944
				1.00141
				1.00105
				1.00195
				1.00173
				1.00222
				1.0021
				1.00232
				1.00227
				1.00283
				1.00294
				1.00278
				1.00291
				1.00262
				1.00282
				1.00225
				1.00255
				1.00157
				1.00201
				1.00047
				1.00108
				0.998876
				0.999666
				0.996702
				0.997681
				0.993875
				0.995046
				0.990326
				0.991688
				0.985997
				0.987538
				0.980848
				0.982545
				0.974854
				0.976676
				0.968012
				0.969917
				0.960343
				0.962276
				0.951886
				0.953785
				0.942704
				0.944493
				0.932873
				0.934475
				0.922496
				0.923822
				0.911684
				0.912645
				0.900567
				0.901068
				0.889287
				0.889227
				0.877998
				0.87728
				0.866872
				0.865394
				0.85609
				0.853753
				0.845846
				0.842552
				0.836349
				0.832001
				0.827817
				0.822327
				0.820475
				0.813772
				0.814542
				0.806573
				0.81022
				0.800956
				0.807676
				0.797137
				0.80703
				0.795272
				0.808324
				0.795465
				0.811523
				0.797716
				0.816526
				0.80195
				0.823182
				0.808033
				0.831299
				0.815782
				0.840666
				0.824965
				0.851075
				0.835357
				0.862326
				0.846738
				0.874233
				0.858904
				0.886621
				0.871663
				0.899332
				0.884831
				0.912222
				0.898256
				0.925164
				0.911799
				0.938041
				0.925324
				0.950741
				0.938723
				0.963169
				0.951879
				0.975233
				0.964698
				0.986851
				0.97709
				0.997947
				0.988974
				1.00845
				1.00027
				1.0183
				1.01092
				1.02744
				1.02085
				1.03581
				1.03
				1.04336
				1.03833
				1.05007
				1.04579
				1.05588
				1.05233
				1.06077
				1.05793
				1.06472
				1.06255
				1.0677
				1.06617
				1.06969
				1.06877
				1.07069
				1.07034
				1.07069
				1.07086
				1.06969
				1.07034
				1.0677
				1.06877
				1.06472
				1.06617
				1.06077
				1.06255
				1.05588
				1.05793
				1.05007
				1.05233
				1.04336
				1.04579
				1.03581
				1.03833
				1.02744
				1.03
				1.0183
				1.02085
				1.00845
				1.01092
				0.997947
				1.00027
				0.986851
				0.988974
				0.975232
				0.977089
				0.963169
				0.964697
				0.950741
				0.951877
				0.938041
				0.938724
				0.925164
				0.925326
				0.912222
				0.911798
				0.899331
				0.898256
				0.886621
				0.884831
				0.874233
				0.871662
				0.862326
				0.858904
				0.851075
				0.84674
				0.840666
				0.835356
				0.831298
				0.824964
				0.823182
				0.815782
				0.816526
				0.808033
				0.811523
				0.80195
				0.808324
				0.797716
				0.80703
				0.795465
				0.807676
				0.795272
				0.81022
				0.797137
				0.814542
				0.800956
				0.820475
				0.806573
				0.827817
				0.813772
				0.836349
				0.822327
				0.845847
				0.832001
				0.85609
				0.842553
				0.866872
				0.853753
				0.877998
				0.865394
				0.889287
				0.87728
				0.900567
				0.889228
				0.911684
				0.901068
				0.922496
				0.912645
				0.932873
				0.923822
				0.942704
				0.934475
				0.951886
				0.944492
				0.960343
				0.953785
				0.968012
				0.962276
				0.974854
				0.969917
				0.980848
				0.976676
				0.985997
				0.982545
				0.990326
				0.987538
				0.993875
				0.991688
				0.996702
				0.995047
				0.998876
				0.997681
				1.00047
				0.999666
				1.00157
				1.00108
				1.00225
				1.00201
				1.00262
				1.00255
				1.00278
				1.00282
				1.00283
				1.00291
				1.00347
				1.00337
				1.00346
				1.00337
				1.00339
				1.00334
				1.00313
				1.00321
				1.00258
				1.00286
				1.00165
				1.00221
				1.00024
				1.00115
				0.998294
				0.999623
				0.995732
				0.997547
				0.992494
				0.994856
				0.988524
				0.991492
				0.983786
				0.987409
				0.978256
				0.982577
				0.971934
				0.976983
				0.964837
				0.970635
				0.957004
				0.963562
				0.94849
				0.955811
				0.939367
				0.947445
				0.929727
				0.938545
				0.919672
				0.929207
				0.909319
				0.919538
				0.898801
				0.90966
				0.888261
				0.899707
				0.877857
				0.889824
				0.867759
				0.880168
				0.858149
				0.870909
				0.849228
				0.862229
				0.841203
				0.854318
				0.834288
				0.847373
				0.828694
				0.841592
				0.824617
				0.83716
				0.822216
				0.834239
				0.821606
				0.832951
				0.822829
				0.833363
				0.825854
				0.835479
				0.830588
				0.839239
				0.836885
				0.844532
				0.844563
				0.851206
				0.85342
				0.859085
				0.863258
				0.867984
				0.873884
				0.877721
				0.885119
				0.888122
				0.896793
				0.899023
				0.908759
				0.910277
				0.92088
				0.921747
				0.933032
				0.93331
				0.945107
				0.944854
				0.957001
				0.956279
				0.968624
				0.967492
				0.979893
				0.978409
				0.990732
				0.988953
				1.00107
				0.999056
				1.01085
				1.00865
				1.02
				1.01769
				1.02849
				1.0261
				1.03626
				1.03386
				1.04327
				1.04091
				1.04948
				1.04722
				1.05486
				1.05275
				1.05939
				1.05748
				1.06304
				1.06139
				1.06579
				1.06444
				1.06764
				1.06663
				1.06856
				1.06795
				1.06856
				1.0684
				1.06764
				1.06795
				1.06579
				1.06663
				1.06304
				1.06444
				1.05939
				1.06139
				1.05486
				1.05748
				1.04948
				1.05275
				1.04327
				1.04722
				1.03626
				1.04091
				1.02849
				1.03386
				1.02
				1.0261
				1.01085
				1.01769
				1.00107
				1.00865
				0.990731
				0.999056
				0.979893
				0.988953
				0.968624
				0.978409
				0.957
				0.967492
				0.945107
				0.956279
				0.933032
				0.944854
				0.92088
				0.93331
				0.908759
				0.921747
				0.896793
				0.910277
				0.885119
				0.899023
				0.873885
				0.888122
				0.863259
				0.877721
				0.85342
				0.867984
				0.844562
				0.859085
				0.836885
				0.851206
				0.830588
				0.844532
				0.825854
				0.839239
				0.822829
				0.835479
				0.821606
				0.833363
				0.822216
				0.832951
				0.824617
				0.834239
				0.828694
				0.83716
				0.834288
				0.841592
				0.841203
				0.847373
				0.849228
				0.854318
				0.85815
				0.862229
				0.867759
				0.870909
				0.877857
				0.880168
				0.888261
				0.889824
				0.898801
				0.899707
				0.909319
				0.90966
				0.919672
				0.919538
				0.929726
				0.929206
				0.939367
				0.938545
				0.94849
				0.947445
				0.957004
				0.955811
				0.964838
				0.963562
				0.971934
				0.970635
				0.978256
				0.976983
				0.983786
				0.982577
				0.988524
				0.987409
				0.992494
				0.991492
				0.995732
				0.994856
				0.998294
				0.997546
				1.00024
				0.999623
				1.00165
				1.00115
				1.00258
				1.00221
				1.00313
				1.00286
				1.00339
				1.00321
				1.00346
				1.00334
				1.00347
				1.00337
				1.00386
				1.00394
				1.00391
				1.00396
				1.00394
				1.00401
				1.00387
				1.00397
				1.00358
				1.00374
				1.00298
				1.0032
				1.00199
				1.00228
				1.00054
				1.00091
				0.998565
				0.999019
				0.996004
				0.996545
				0.992809
				0.993439
				0.988948
				0.98966
				0.984406
				0.985183
				0.979186
				0.980002
				0.97331
				0.974128
				0.966815
				0.96759
				0.959755
				0.96043
				0.952197
				0.95271
				0.94422
				0.944501
				0.935915
				0.93589
				0.927384
				0.926974
				0.918738
				0.917862
				0.9101
				0.908676
				0.901602
				0.899548
				0.893389
				0.890624
				0.885616
				0.882059
				0.878445
				0.874024
				0.872047
				0.866697
				0.866592
				0.860263
				0.862246
				0.854907
				0.859155
				0.850805
				0.85744
				0.848107
				0.857178
				0.846929
				0.858399
				0.847334
				0.861078
				0.849326
				0.865143
				0.852853
				0.870481
				0.85781
				0.876952
				0.864057
				0.884402
				0.871429
				0.89267
				0.879752
				0.9016
				0.888856
				0.911042
				0.898574
				0.920859
				0.908751
				0.930922
				0.919249
				0.941116
				0.929937
				0.951336
				0.9407
				0.961486
				0.951433
				0.971481
				0.962042
				0.981241
				0.972441
				0.990698
				0.982553
				0.999786
				0.992308
				1.00845
				1.00164
				1.01663
				1.0105
				1.02429
				1.01883
				1.03138
				1.02658
				1.03787
				1.03372
				1.04371
				1.0402
				1.04889
				1.04599
				1.05338
				1.05107
				1.05715
				1.05541
				1.06019
				1.05899
				1.06248
				1.06179
				1.06401
				1.06379
				1.06478
				1.065
				1.06478
				1.06541
				1.06401
				1.065
				1.06248
				1.06379
				1.06019
				1.06179
				1.05715
				1.05899
				1.05338
				1.05541
				1.04889
				1.05107
				1.04371
				1.04599
				1.03787
				1.0402
				1.03138
				1.03372
				1.02429
				1.02658
				1.01663
				1.01883
				1.00845
				1.0105
				0.999786
				1.00164
				0.990698
				0.992308
				0.981241
				0.982553
				0.971481
				0.972441
				0.961486
				0.962042
				0.951336
				0.951434
				0.941117
				0.9407
				0.930922
				0.929937
				0.920859
				0.919249
				0.911042
				0.908752
				0.9016
				0.898574
				0.89267
				0.888856
				0.884402
				0.879753
				0.876952
				0.871429
				0.870481
				0.864057
				0.865143
				0.85781
				0.861078
				0.852853
				0.858399
				0.849326
				0.857178
				0.847334
				0.85744
				0.846929
				0.859155
				0.848107
				0.862246
				0.850805
				0.866592
				0.854907
				0.872047
				0.860263
				0.878445
				0.866697
				0.885616
				0.874024
				0.893389
				0.882059
				0.901602
				0.890624
				0.9101
				0.899548
				0.918738
				0.908676
				0.927384
				0.917862
				0.935915
				0.926974
				0.94422
				0.93589
				0.952197
				0.944501
				0.959755
				0.952709
				0.966815
				0.96043
				0.97331
				0.967589
				0.979186
				0.974128
				0.984406
				0.980003
				0.988948
				0.985183
				0.992809
				0.98966
				0.996004
				0.993439
				0.998565
				0.996545
				1.00054
				0.999019
				1.00199
				1.00091
				1.00298
				1.00228
				1.00358
				1.0032
				1.00387
				1.00374
				1.00394
				1.00397
				1.00391
				1.00401
				1.00386
				1.00396
				1.00427
				1.00419
				1.00437
				1.00425
				1.00449
				1.00439
				1.00451
				1.00453
				1.00431
				1.00454
				1.0038
				1.00433
				1.00291
				1.00379
				1.00157
				1.00286
				0.999731
				1.00147
				0.997336
				0.999555
				0.99435
				0.997081
				0.990751
				0.994013
				0.986531
				0.990337
				0.981701
				0.986058
				0.976282
				0.981196
				0.970312
				0.975785
				0.963841
				0.969871
				0.956928
				0.96351
				0.949643
				0.956768
				0.942065
				0.94972
				0.934284
				0.942446
				0.926401
				0.935041
				0.918524
				0.927604
				0.910774
				0.920245
				0.903284
				0.913086
				0.896193
				0.906253
				0.889653
				0.899884
				0.88382
				0.894123
				0.878852
				0.889115
				0.874901
				0.885001
				0.872101
				0.881912
				0.870564
				0.879958
				0.870358
				0.879219
				0.871514
				0.879739
				0.874008
				0.881519
				0.877776
				0.884519
				0.882715
				0.888663
				0.888699
				0.893846
				0.895585
				0.899943
				0.903225
				0.906823
				0.911473
				0.914347
				0.920192
				0.922386
				0.92925
				0.930811
				0.93853
				0.939507
				0.947922
				0.948366
				0.957329
				0.957289
				0.966663
				0.966189
				0.975843
				0.974984
				0.984799
				0.983603
				0.993465
				0.991979
				1.00178
				1.00006
				1.0097
				1.00778
				1.01718
				1.0151
				1.02417
				1.02198
				1.03063
				1.02838
				1.03653
				1.03426
				1.04185
				1.0396
				1.04656
				1.04437
				1.05063
				1.04855
				1.05406
				1.05212
				1.05681
				1.05506
				1.05889
				1.05736
				1.06028
				1.05901
				1.06098
				1.06
				1.06098
				1.06033
				1.06028
				1.06
				1.05889
				1.05901
				1.05681
				1.05736
				1.05406
				1.05506
				1.05063
				1.05212
				1.04656
				1.04855
				1.04185
				1.04437
				1.03653
				1.0396
				1.03063
				1.03426
				1.02417
				1.02838
				1.01718
				1.02198
				1.0097
				1.0151
				1.00178
				1.00778
				0.993465
				1.00006
				0.984799
				0.991979
				0.975843
				0.983603
				0.966663
				0.974984
				0.957329
				0.966189
				0.947922
				0.957289
				0.93853
				0.948366
				0.92925
				0.939507
				0.920192
				0.930811
				0.911473
				0.922386
				0.903225
				0.914347
				0.895585
				0.906823
				0.888699
				0.899943
				0.882715
				0.893846
				0.877776
				0.888663
				0.874008
				0.884519
				0.871514
				0.881519
				0.870358
				0.879739
				0.870564
				0.879219
				0.872101
				0.879958
				0.874901
				0.881912
				0.878852
				0.885001
				0.88382
				0.889115
				0.889653
				0.894123
				0.896193
				0.899884
				0.903284
				0.906253
				0.910774
				0.913086
				0.918524
				0.920246
				0.926401
				0.927604
				0.934284
				0.935041
				0.942065
				0.942446
				0.949643
				0.949719
				0.956928
				0.956768
				0.963841
				0.96351
				0.970312
				0.969871
				0.976282
				0.975785
				0.981701
				0.981196
				0.986531
				0.986058
				0.990751
				0.990337
				0.99435
				0.994013
				0.997336
				0.997081
				0.999731
				0.999555
				1.00157
				1.00147
				1.00291
				1.00286
				1.0038
				1.00379
				1.00431
				1.00433
				1.00451
				1.00454
				1.00449
				1.00453
				1.00437
				1.00439
				1.00427
				1.00425
				1.0043
				1.0043
				1.00448
				1.00439
				1.00477
				1.00461
				1.00503
				1.00484
				1.00515
				1.00494
				1.005
				1.00479
				1.0045
				1.00431
				1.00359
				1.00343
				1.00221
				1.00211
				1.00032
				1.0003
				0.997891
				0.997971
				0.994924
				0.995096
				0.991426
				0.991677
				0.987419
				0.987724
				0.982934
				0.98326
				0.978013
				0.978317
				0.972703
				0.972936
				0.967057
				0.967167
				0.961137
				0.961067
				0.955007
				0.9547
				0.948743
				0.948137
				0.942425
				0.941459
				0.936142
				0.934757
				0.929992
				0.928127
				0.924082
				0.921679
				0.918525
				0.915529
				0.913437
				0.9098
				0.908942
				0.904623
				0.905158
				0.90013
				0.902196
				0.896449
				0.900155
				0.893696
				0.899112
				0.891971
				0.899117
				0.891346
				0.900185
				0.891859
				0.902302
				0.893512
				0.905421
				0.89627
				0.909467
				0.900065
				0.914348
				0.904803
				0.919956
				0.910374
				0.926178
				0.916656
				0.932901
				0.923526
				0.940015
				0.930864
				0.947413
				0.938552
				0.955
				0.946484
				0.962684
				0.95456
				0.970383
				0.962689
				0.978024
				0.97079
				0.985539
				0.978789
				0.992869
				0.98662
				0.99996
				0.994223
				1.00676
				1.00155
				1.01324
				1.00854
				1.01934
				1.01517
				1.02504
				1.02138
				1.03031
				1.02716
				1.03513
				1.03247
				1.03946
				1.03728
				1.04329
				1.04158
				1.0466
				1.04534
				1.04938
				1.04855
				1.05162
				1.05119
				1.05331
				1.05326
				1.05444
				1.05474
				1.055
				1.05563
				1.055
				1.05593
				1.05444
				1.05563
				1.05331
				1.05474
				1.05162
				1.05326
				1.04938
				1.05119
				1.0466
				1.04855
				1.04329
				1.04534
				1.03946
				1.04158
				1.03513
				1.03728
				1.03031
				1.03247
				1.02504
				1.02716
				1.01934
				1.02138
				1.01324
				1.01517
				1.00676
				1.00854
				0.99996
				1.00155
				0.992869
				0.994223
				0.985539
				0.98662
				0.978024
				0.978789
				0.970383
				0.97079
				0.962684
				0.962689
				0.955
				0.95456
				0.947414
				0.946484
				0.940015
				0.938552
				0.932901
				0.930863
				0.926178
				0.923526
				0.919956
				0.916656
				0.914348
				0.910374
				0.909467
				0.904803
				0.905421
				0.900065
				0.902302
				0.89627
				0.900185
				0.893512
				0.899117
				0.891859
				0.899112
				0.891346
				0.900155
				0.891971
				0.902196
				0.893696
				0.905158
				0.896449
				0.908942
				0.90013
				0.913438
				0.904623
				0.918525
				0.9098
				0.924083
				0.915529
				0.929993
				0.921679
				0.936142
				0.928128
				0.942425
				0.934757
				0.948743
				0.941459
				0.955007
				0.948137
				0.961137
				0.954699
				0.967057
				0.961067
				0.972703
				0.967168
				0.978013
				0.972936
				0.982934
				0.978317
				0.987419
				0.98326
				0.991426
				0.987724
				0.994924
				0.991677
				0.997891
				0.995096
				1.00032
				0.997971
				1.00221
				1.0003
				1.00359
				1.00211
				1.0045
				1.00343
				1.005
				1.00431
				1.00515
				1.00479
				1.00503
				1.00494
				1.00477
				1.00484
				1.00448
				1.00461
				1.0043
				1.00439
				1.00404
				1.00402
				1.00428
				1.00416
				1.00466
				1.00452
				1.00502
				1.00499
				1.0052
				1.00539
				1.00509
				1.00559
				1.00463
				1.00548
				1.00376
				1.00498
				1.00244
				1.00404
				1.00064
				1.00263
				0.99837
				1.00073
				0.995616
				0.998347
				0.992399
				0.995499
				0.98874
				0.99221
				0.984671
				0.988512
				0.980228
				0.984442
				0.97545
				0.980041
				0.970385
				0.975351
				0.965083
				0.970422
				0.959602
				0.965306
				0.954007
				0.96006
				0.948369
				0.954751
				0.942767
				0.94945
				0.93729
				0.944234
				0.93203
				0.939191
				0.92709
				0.934412
				0.922576
				0.929993
				0.918596
				0.926034
				0.915255
				0.922633
				0.912653
				0.919885
				0.910876
				0.917873
				0.909992
				0.916668
				0.910043
				0.916319
				0.911044
				0.916853
				0.912982
				0.918269
				0.915815
				0.920542
				0.919479
				0.923623
				0.923892
				0.927446
				0.928958
				0.931929
				0.934577
				0.936982
				0.940647
				0.94251
				0.947068
				0.948419
				0.953745
				0.954618
				0.960588
				0.961021
				0.967517
				0.967546
				0.974456
				0.974119
				0.981337
				0.980672
				0.9881
				0.987145
				0.99469
				0.993482
				1.00106
				0.999634
				1.00716
				1.00556
				1.01297
				1.01121
				1.01843
				1.01657
				1.02354
				1.02159
				1.02825
				1.02625
				1.03255
				1.03053
				1.03641
				1.03441
				1.03983
				1.03787
				1.04278
				1.0409
				1.04526
				1.04348
				1.04725
				1.0456
				1.04875
				1.04726
				1.04976
				1.04845
				1.05026
				1.04917
				1.05026
				1.04941
				1.04976
				1.04917
				1.04875
				1.04845
				1.04725
				1.04726
				1.04526
				1.0456
				1.04278
				1.04348
				1.03983
				1.0409
				1.03641
				1.03787
				1.03255
				1.03441
				1.02825
				1.03053
				1.02354
				1.02625
				1.01843
				1.02159
				1.01297
				1.01657
				1.00716
				1.01121
				1.00106
				1.00556
				0.99469
				0.999633
				0.9881
				0.993482
				0.981337
				0.987145
				0.974456
				0.980672
				0.967517
				0.974119
				0.960589
				0.967546
				0.953745
				0.961021
				0.947068
				0.954618
				0.940647
				0.948419
				0.934577
				0.94251
				0.928958
				0.936982
				0.923892
				0.931929
				0.919479
				0.927446
				0.915815
				0.923623
				0.912982
				0.920542
				0.911044
				0.918269
				0.910043
				0.916853
				0.909992
				0.916319
				0.910876
				0.916668
				0.912653
				0.917873
				0.915255
				0.919885
				0.918596
				0.922633
				0.922576
				0.926034
				0.92709
				0.929993
				0.93203
				0.934412
				0.93729
				0.939191
				0.942768
				0.944235
				0.948369
				0.94945
				0.954007
				0.954751
				0.959602
				0.96006
				0.965083
				0.965306
				0.970385
				0.970422
				0.97545
				0.975351
				0.980228
				0.980041
				0.984671
				0.984442
				0.98874
				0.988512
				0.992399
				0.99221
				0.995616
				0.995499
				0.99837
				0.998347
				1.00064
				1.00073
				1.00244
				1.00263
				1.00376
				1.00404
				1.00463
				1.00498
				1.00509
				1.00548
				1.0052
				1.00559
				1.00502
				1.00539
				1.00466
				1.00499
				1.00428
				1.00452
				1.00404
				1.00416
				1.00343
				1.00333
				1.00378
				1.0035
				1.00438
				1.00396
				1.00504
				1.00453
				1.00556
				1.00502
				1.0058
				1.00527
				1.00567
				1.00518
				1.00512
				1.00471
				1.00412
				1.00382
				1.00267
				1.00249
				1.00078
				1.00072
				0.998481
				0.998524
				0.995799
				0.995924
				0.992768
				0.992944
				0.989423
				0.989613
				0.985797
				0.985965
				0.981928
				0.982033
				0.977853
				0.977855
				0.973615
				0.973473
				0.96926
				0.968933
				0.964839
				0.964285
				0.960408
				0.959586
				0.956031
				0.954901
				0.951776
				0.950298
				0.947717
				0.945854
				0.943931
				0.94165
				0.9405
				0.937771
				0.937502
				0.934305
				0.935017
				0.931338
				0.933115
				0.928952
				0.931856
				0.927221
				0.931288
				0.926204
				0.93144
				0.925945
				0.932321
				0.926465
				0.933922
				0.927763
				0.936213
				0.929819
				0.939147
				0.932589
				0.942665
				0.936016
				0.946697
				0.940028
				0.951168
				0.944545
				0.956002
				0.949486
				0.961119
				0.954766
				0.966446
				0.960304
				0.971911
				0.966022
				0.977449
				0.971848
				0.982999
				0.977714
				0.988505
				0.983559
				0.993918
				0.989328
				0.999193
				0.994972
				1.00429
				1.00045
				1.00917
				1.00571
				1.01382
				1.01074
				1.01819
				1.01549
				1.02226
				1.01995
				1.02602
				1.02408
				1.02945
				1.02787
				1.03254
				1.0313
				1.03526
				1.03436
				1.03761
				1.03703
				1.03958
				1.03931
				1.04117
				1.04118
				1.04236
				1.04265
				1.04316
				1.0437
				1.04356
				1.04433
				1.04356
				1.04454
				1.04316
				1.04433
				1.04236
				1.0437
				1.04117
				1.04265
				1.03958
				1.04118
				1.03761
				1.03931
				1.03526
				1.03703
				1.03254
				1.03436
				1.02945
				1.0313
				1.02602
				1.02787
				1.02226
				1.02408
				1.01819
				1.01995
				1.01382
				1.01549
				1.00917
				1.01074
				1.00429
				1.00571
				0.999193
				1.00045
				0.993918
				0.994972
				0.988505
				0.989328
				0.982999
				0.983559
				0.977449
				0.977713
				0.971911
				0.971848
				0.966446
				0.966022
				0.961119
				0.960304
				0.956002
				0.954766
				0.951169
				0.949486
				0.946697
				0.944545
				0.942665
				0.940028
				0.939147
				0.936016
				0.936213
				0.932589
				0.933922
				0.929819
				0.932321
				0.927763
				0.93144
				0.926465
				0.931288
				0.925945
				0.931856
				0.926204
				0.933115
				0.927221
				0.935017
				0.928952
				0.937502
				0.931338
				0.9405
				0.934305
				0.943931
				0.937771
				0.947717
				0.94165
				0.951776
				0.945854
				0.956031
				0.950298
				0.960408
				0.954901
				0.964839
				0.959586
				0.96926
				0.964285
				0.973615
				0.968933
				0.977853
				0.973473
				0.981928
				0.977855
				0.985797
				0.982033
				0.989423
				0.985965
				0.992768
				0.989613
				0.995799
				0.992944
				0.998481
				0.995924
				1.00078
				0.998524
				1.00267
				1.00072
				1.00412
				1.00249
				1.00512
				1.00382
				1.00567
				1.00471
				1.0058
				1.00518
				1.00556
				1.00527
				1.00504
				1.00502
				1.00438
				1.00453
				1.00378
				1.00396
				1.00343
				1.0035
				1.00233
				1.00237
				1.00277
				1.00261
				1.00349
				1.00325
				1.00425
				1.00411
				1.00485
				1.00493
				1.00513
				1.00551
				1.00504
				1.00574
				1.00453
				1.00554
				1.00361
				1.00491
				1.00227
				1.00385
				1.00056
				1.00239
				0.99848
				1.00056
				0.996073
				0.998391
				0.993366
				0.995926
				0.990388
				0.993195
				0.987171
				0.990228
				0.983746
				0.987054
				0.980147
				0.983707
				0.97641
				0.980219
				0.972576
				0.976627
				0.96869
				0.972972
				0.964804
				0.969299
				0.960971
				0.965657
				0.957253
				0.962101
				0.953713
				0.958689
				0.950421
				0.955484
				0.947445
				0.952549
				0.944857
				0.94995
				0.942721
				0.947749
				0.9411
				0.946005
				0.940045
				0.94477
				0.939596
				0.944085
				0.939776
				0.943981
				0.940595
				0.94447
				0.942041
				0.945553
				0.94409
				0.947214
				0.946703
				0.949422
				0.949826
				0.952136
				0.953401
				0.955302
				0.957362
				0.958864
				0.961641
				0.962759
				0.96617
				0.966924
				0.970883
				0.971296
				0.975716
				0.975813
				0.980612
				0.980419
				0.985516
				0.98506
				0.990379
				0.989687
				0.995157
				0.994256
				0.99981
				0.998727
				1.0043
				1.00306
				1.0086
				1.00724
				1.01269
				1.01121
				1.01653
				1.01497
				1.02011
				1.0185
				1.02341
				1.02176
				1.02642
				1.02476
				1.02912
				1.02747
				1.03151
				1.02988
				1.03357
				1.03199
				1.03529
				1.03379
				1.03668
				1.03526
				1.03772
				1.03642
				1.03842
				1.03724
				1.03877
				1.03774
				1.03877
				1.03791
				1.03842
				1.03774
				1.03772
				1.03724
				1.03668
				1.03642
				1.03529
				1.03526
				1.03357
				1.03379
				1.03151
				1.03199
				1.02912
				1.02988
				1.02642
				1.02747
				1.02341
				1.02476
				1.02011
				1.02176
				1.01653
				1.0185
				1.01269
				1.01497
				1.0086
				1.01121
				1.0043
				1.00724
				0.99981
				1.00306
				0.995157
				0.998727
				0.990379
				0.994256
				0.985516
				0.989687
				0.980612
				0.98506
				0.975716
				0.980419
				0.970883
				0.975813
				0.96617
				0.971296
				0.961641
				0.966924
				0.957362
				0.962759
				0.953402
				0.958864
				0.949826
				0.955302
				0.946703
				0.952136
				0.94409
				0.949422
				0.942041
				0.947214
				0.940595
				0.945554
				0.939776
				0.94447
				0.939596
				0.943981
				0.940045
				0.944085
				0.9411
				0.94477
				0.942721
				0.946005
				0.944857
				0.947749
				0.947445
				0.94995
				0.950421
				0.952549
				0.953713
				0.955484
				0.957253
				0.958689
				0.960971
				0.962101
				0.964804
				0.965657
				0.96869
				0.969299
				0.972576
				0.972972
				0.97641
				0.976627
				0.980147
				0.980219
				0.983746
				0.983707
				0.987171
				0.987054
				0.990388
				0.990228
				0.993366
				0.993195
				0.996073
				0.995927
				0.99848
				0.998391
				1.00056
				1.00056
				1.00227
				1.00239
				1.00361
				1.00385
				1.00453
				1.00491
				1.00504
				1.00554
				1.00513
				1.00574
				1.00485
				1.00551
				1.00425
				1.00493
				1.00349
				1.00411
				1.00277
				1.00325
				1.00233
				1.00261
				1.00113
				1.00092
				1.0017
				1.00121
				1.00267
				1.00197
				1.00375
				1.00296
				1.00467
				1.00388
				1.00524
				1.00454
				1.00539
				1.00481
				1.0051
				1.00466
				1.00439
				1.00411
				1.00331
				1.00316
				1.00188
				1.00186
				1.00016
				1.00023
				0.998181
				0.998309
				0.99597
				0.996128
				0.993559
				0.993717
				0.990973
				0.991101
				0.988239
				0.988309
				0.985386
				0.98537
				0.982442
				0.982312
				0.97944
				0.979169
				0.976415
				0.975977
				0.973407
				0.972776
				0.970459
				0.969609
				0.967616
				0.966524
				0.964929
				0.963571
				0.962448
				0.960806
				0.960223
				0.958282
				0.958307
				0.956056
				0.956747
				0.95418
				0.955585
				0.952707
				0.954858
				0.951678
				0.954593
				0.951128
				0.954807
				0.951082
				0.955504