<VTKFile type="UnstructuredGrid" version="0.1" byte_order="LittleEndian">
<UnstructuredGrid>
	<Piece NumberOfPoints="4224" NumberOfCells="8192">
		<CellData Scalars="density" Vectors="velocity">
			<DataArray type="Float64" Name="density" Format="ascii">
				1.00325
				1.00324
				1.00314
				1.00319
				1.00287
				1.00303
				1.00233
				1.00266
				1.00141
				1.00197
				0.999995
				1.00087
				0.997985
				0.999251
				0.995291
				0.99702
				0.991824
				0.994093
				0.987505
				0.990391
				0.982269
				0.985845
				0.976063
				0.980399
				0.968866
				0.974018
				0.960678
				0.966692
				0.951518
				0.958431
				0.941443
				0.94927
				0.930513
				0.93927
				0.918838
				0.92851
				0.906521
				0.917096
				0.893709
				0.905145
				0.880553
				0.892799
				0.867195
				0.880207
				0.853834
				0.867531
				0.840667
				0.854956
				0.8279
				0.842677
				0.815756
				0.830898
				0.804447
				0.819836
				0.794256
				0.809716
				0.785451
				0.800795
				0.778265
				0.793315
				0.772911
				0.787492
				0.769666
				0.78354
				0.768601
				0.781631
				0.769849
				0.781847
				0.773315
				0.784208
				0.778884
				0.78862
				0.786412
				0.794949
				0.795681
				0.80302
				0.806393
				0.812602
				0.81833
				0.82345
				0.831259
				0.835351
				0.84497
				0.848095
				0.859263
				0.861488
				0.873919
				0.875339
				0.888806
				0.889478
				0.903783
				0.903768
				0.918674
				0.918071
				0.933412
				0.932255
				0.94782
				0.946214
				0.961831
				0.959829
				0.975333
				0.973011
				0.988246
				0.985669
				1.00049
				0.99772
				1.01196
				1.00909
				1.02262
				1.0197
				1.0324
				1.02949
				1.04123
				1.03841
				1.04907
				1.0464
				1.05587
				1.05342
				1.0616
				1.05942
				1.06622
				1.06438
				1.0697
				1.06827
				1.07204
				1.07106
				1.07321
				1.07274
				1.07321
				1.0733
				1.07204
				1.07274
				1.0697
				1.07106
				1.06622
				1.06827
				1.0616
				1.06438
				1.05587
				1.05942
				1.04907
				1.05342
				1.04123
				1.0464
				1.0324
				1.03841
				1.02262
				1.02949
				1.01196
				1.0197
				1.00049
				1.00909
				0.988247
				0.997721
				0.975333
				0.985669
				0.961832
				0.973012
				0.947812
				0.959826
				0.933412
				0.946213
				0.918682
				0.932258
				0.90378
				0.918072
				0.888805
				0.903768
				0.873919
				0.889478
				0.859262
				0.875338
				0.844968
				0.861486
				0.831268
				0.848099
				0.818326
				0.835352
				0.806392
				0.823449
				0.795681
				0.812601
				0.786412
				0.80302
				0.778884
				0.794949
				0.773315
				0.78862
				0.769849
				0.784208
				0.768601
				0.781847
				0.769666
				0.781631
				0.772911
				0.78354
				0.778265
				0.787492
				0.785451
				0.793315
				0.794256
				0.800795
				0.804447
				0.809716
				0.815756
				0.819836
				0.8279
				0.830899
				0.840667
				0.842677
				0.853834
				0.854956
				0.867195
				0.867531
				0.880553
				0.880208
				0.893709
				0.892799
				0.906522
				0.905145
				0.918839
				0.917096
				0.930508
				0.928509
				0.941445
				0.93927
				0.951518
				0.949271
				0.960678
				0.958431
				0.968866
				0.966692
				0.976063
				0.974018
				0.982269
				0.980399
				0.987505
				0.985845
				0.991825
				0.990391
				0.995291
				0.994093
				0.997985
				0.99702
				0.999995
				0.999251
				1.00141
				1.00087
				1.00233
				1.00197
				1.00287
				1.00266
				1.00314
				1.00303
				1.00325
				1.00319
				1.00376
				1.00386
				1.0037
				1.00384
				1.00354
				1.00374
				1.00317
				1.00348
				1.00249
				1.00294
				1.0014
				1.00201
				0.99981
				1.0006
				0.997644
				0.99862
				0.994825
				0.995993
				0.991287
				0.992645
				0.986973
				0.988509
				0.98184
				0.983533
				0.975866
				0.977682
				0.969047
				0.970946
				0.961403
				0.96333
				0.952975
				0.954867
				0.943824
				0.945607
				0.934028
				0.935624
				0.923688
				0.925008
				0.912916
				0.913872
				0.901842
				0.902339
				0.890607
				0.890545
				0.879366
				0.878646
				0.86829
				0.866812
				0.857559
				0.855225
				0.847367
				0.84408
				0.837922
				0.833585
				0.829439
				0.823966
				0.822143
				0.815464
				0.816251
				0.808313
				0.81196
				0.802735
				0.809437
				0.798945
				0.808797
				0.797096
				0.810083
				0.797289
				0.813263
				0.799526
				0.818234
				0.803732
				0.824849
				0.809776
				0.832918
				0.817476
				0.842235
				0.826606
				0.85259
				0.836941
				0.863787
				0.848265
				0.875641
				0.860373
				0.887978
				0.873076
				0.900639
				0.886191
				0.913482
				0.899564
				0.926378
				0.913057
				0.939212
				0.926535
				0.951871
				0.93989
				0.964262
				0.953004
				0.976289
				0.965785
				0.987874
				0.97814
				0.998939
				0.98999
				1.00941
				1.00126
				1.01924
				1.01188
				1.02835
				1.02178
				1.0367
				1.03091
				1.04424
				1.03922
				1.05092
				1.04666
				1.05672
				1.05318
				1.0616
				1.05877
				1.06554
				1.06338
				1.06851
				1.06699
				1.0705
				1.06958
				1.07149
				1.07114
				1.07149
				1.07166
				1.0705
				1.07114
				1.06851
				1.06958
				1.06554
				1.06699
				1.0616
				1.06338
				1.05672
				1.05877
				1.05092
				1.05318
				1.04424
				1.04666
				1.0367
				1.03922
				1.02835
				1.03091
				1.01924
				1.02178
				1.00941
				1.01188
				0.998939
				1.00126
				0.987874
				0.98999
				0.976289
				0.97814
				0.964261
				0.965784
				0.951872
				0.953003
				0.939212
				0.939891
				0.926378
				0.926537
				0.913482
				0.913057
				0.900639
				0.899564
				0.887978
				0.88619
				0.875642
				0.873076
				0.863788
				0.860374
				0.85259
				0.848266
				0.842235
				0.83694
				0.832918
				0.826605
				0.824849
				0.817476
				0.818234
				0.809776
				0.813263
				0.803732
				0.810083
				0.799526
				0.808797
				0.797289
				0.809437
				0.797096
				0.81196
				0.798945
				0.816251
				0.802735
				0.822143
				0.808313
				0.829439
				0.815464
				0.837922
				0.823966
				0.847368
				0.833585
				0.857559
				0.844081
				0.86829
				0.855225
				0.879366
				0.866812
				0.890607
				0.878646
				0.901842
				0.890545
				0.912916
				0.902339
				0.923688
				0.913872
				0.934028
				0.925008
				0.943824
				0.935624
				0.952975
				0.945606
				0.961403
				0.954867
				0.969047
				0.96333
				0.975866
				0.970946
				0.98184
				0.977683
				0.986973
				0.983533
				0.991288
				0.988509
				0.994825
				0.992645
				0.997644
				0.995994
				0.99981
				0.99862
				1.0014
				1.0006
				1.00249
				1.00201
				1.00317
				1.00294
				1.00354
				1.00348
				1.0037
				1.00374
				1.00376
				1.00384
				1.00439
				1.00429
				1.00438
				1.00429
				1.00431
				1.00426
				1.00405
				1.00413
				1.00351
				1.00379
				1.00258
				1.00313
				1.00117
				1.00208
				0.999233
				1.00056
				0.99668
				0.998488
				0.993452
				0.995806
				0.989496
				0.992454
				0.984772
				0.988384
				0.979261
				0.983568
				0.97296
				0.977992
				0.965888
				0.971666
				0.958081
				0.964618
				0.949597
				0.956893
				0.940506
				0.948557
				0.930901
				0.93969
				0.920885
				0.930386
				0.910573
				0.920755
				0.900098
				0.910917
				0.889604
				0.901006
				0.879247
				0.891166
				0.869198
				0.881556
				0.859639
				0.872344
				0.850768
				0.86371
				0.842791
				0.855844
				0.835921
				0.848941
				0.830366
				0.843199
				0.826319
				0.838798
				0.823938
				0.835899
				0.823335
				0.834622
				0.82455
				0.835034
				0.827556
				0.837137
				0.83226
				0.840874
				0.838518
				0.846135
				0.84615
				0.852769
				0.854957
				0.860604
				0.864744
				0.869456
				0.875318
				0.879146
				0.886501
				0.889498
				0.898126
				0.900352
				0.910044
				0.91156
				0.922118
				0.922986
				0.934227
				0.934507
				0.946261
				0.946011
				0.958116
				0.957398
				0.969703
				0.968575
				0.980938
				0.979459
				0.991745
				0.989972
				1.00206
				1.00005
				1.0118
				1.00962
				1.02094
				1.01863
				1.0294
				1.02702
				1.03715
				1.03476
				1.04414
				1.04179
				1.05034
				1.04808
				1.05571
				1.0536
				1.06022
				1.05832
				1.06386
				1.06221
				1.06661
				1.06526
				1.06845
				1.06745
				1.06937
				1.06877
				1.06937
				1.06921
				1.06845
				1.06877
				1.06661
				1.06745
				1.06386
				1.06526
				1.06022
				1.06221
				1.05571
				1.05832
				1.05034
				1.0536
				1.04414
				1.04808
				1.03715
				1.04179
				1.0294
				1.03476
				1.02094
				1.02702
				1.0118
				1.01863
				1.00205
				1.00962
				0.991745
				1.00005
				0.980937
				0.989972
				0.969703
				0.979459
				0.958116
				0.968575
				0.946261
				0.957398
				0.934227
				0.946011
				0.922118
				0.934507
				0.910044
				0.922986
				0.898126
				0.91156
				0.886502
				0.900352
				0.875319
				0.889499
				0.864745
				0.879146
				0.854957
				0.869457
				0.846149
				0.860604
				0.838518
				0.852769
				0.83226
				0.846135
				0.827556
				0.840874
				0.82455
				0.837137
				0.823335
				0.835034
				0.823938
				0.834622
				0.826319
				0.835899
				0.830366
				0.838798
				0.835921
				0.843199
				0.842791
				0.848941
				0.850768
				0.855844
				0.85964
				0.86371
				0.869198
				0.872344
				0.879247
				0.881556
				0.889604
				0.891166
				0.900098
				0.901006
				0.910573
				0.910917
				0.920885
				0.920755
				0.930901
				0.930386
				0.940506
				0.939689
				0.949597
				0.948557
				0.958081
				0.956894
				0.965888
				0.964618
				0.97296
				0.971666
				0.979261
				0.977992
				0.984772
				0.983568
				0.989496
				0.988384
				0.993452
				0.992453
				0.99668
				0.995806
				0.999233
				0.998488
				1.00117
				1.00056
				1.00258
				1.00208
				1.00351
				1.00313
				1.00405
				1.00379
				1.00431
				1.00413
				1.00438
				1.00426
				1.00439
				1.00429
				1.00478
				1.00486
				1.00483
				1.00489
				1.00486
				1.00493
				1.00479
				1.0049
				1.0045
				1.00466
				1.0039
				1.00413
				1.00292
				1.00321
				1.00147
				1.00184
				0.999506
				0.999959
				0.996954
				0.997494
				0.993771
				0.994398
				0.989923
				0.990632
				0.985397
				0.98617
				0.980195
				0.981007
				0.974339
				0.975154
				0.967867
				0.968637
				0.960832
				0.961503
				0.953302
				0.95381
				0.945356
				0.945632
				0.937083
				0.937053
				0.928586
				0.928172
				0.919976
				0.919098
				0.911376
				0.909952
				0.902918
				0.900866
				0.894746
				0.891984
				0.887013
				0.883463
				0.879883
				0.875472
				0.873522
				0.868188
				0.868103
				0.861794
				0.863786
				0.856475
				0.860718
				0.852402
				0.859017
				0.849725
				0.858759
				0.848558
				0.859974
				0.848963
				0.862637
				0.850944
				0.866678
				0.854448
				0.871984
				0.859375
				0.878419
				0.865585
				0.885829
				0.872915
				0.894055
				0.881194
				0.902943
				0.890252
				0.912343
				0.899924
				0.922118
				0.910056
				0.932141
				0.92051
				0.942297
				0.931156
				0.95248
				0.941879
				0.962595
				0.952575
				0.972557
				0.963147
				0.982287
				0.973513
				0.991714
				0.983593
				1.00078
				0.993319
				1.00941
				1.00263
				1.01757
				1.01146
				1.02521
				1.01976
				1.03228
				1.0275
				1.03875
				1.03461
				1.04459
				1.04108
				1.04975
				1.04686
				1.05422
				1.05192
				1.05799
				1.05625
				1.06102
				1.05982
				1.0633
				1.06261
				1.06483
				1.06462
				1.0656
				1.06582
				1.0656
				1.06623
				1.06483
				1.06582
				1.0633
				1.06462
				1.06102
				1.06261
				1.05799
				1.05982
				1.05422
				1.05625
				1.04975
				1.05192
				1.04459
				1.04686
				1.03875
				1.04108
				1.03228
				1.03461
				1.02521
				1.0275
				1.01757
				1.01976
				1.00941
				1.01146
				1.00078
				1.00263
				0.991714
				0.993319
				0.982287
				0.983593
				0.972557
				0.973513
				0.962595
				0.963147
				0.95248
				0.952575
				0.942297
				0.941879
				0.932141
				0.931156
				0.922118
				0.92051
				0.912343
				0.910056
				0.902943
				0.899924
				0.894056
				0.890252
				0.88583
				0.881194
				0.87842
				0.872915
				0.871984
				0.865585
				0.866678
				0.859375
				0.862637
				0.854448
				0.859974
				0.850944
				0.858759
				0.848963
				0.859017
				0.848558
				0.860718
				0.849725
				0.863786
				0.852402
				0.868103
				0.856475
				0.873522
				0.861794
				0.879883
				0.868188
				0.887013
				0.875472
				0.894746
				0.883463
				0.902918
				0.891984
				0.911376
				0.900866
				0.919976
				0.909952
				0.928586
				0.919098
				0.937083
				0.928172
				0.945356
				0.937053
				0.953302
				0.945632
				0.960832
				0.95381
				0.967867
				0.961503
				0.974339
				0.968637
				0.980195
				0.975153
				0.985397
				0.981007
				0.989923
				0.98617
				0.993771
				0.990632
				0.996954
				0.994398
				0.999506
				0.997494
				1.00147
				0.999959
				1.00292
				1.00184
				1.0039
				1.00321
				1.0045
				1.00413
				1.00479
				1.00466
				1.00486
				1.0049
				1.00483
				1.00493
				1.00478
				1.00489
				1.00519
				1.00511
				1.00529
				1.00517
				1.00541
				1.00532
				1.00543
				1.00545
				1.00524
				1.00547
				1.00473
				1.00525
				1.00384
				1.00472
				1.00251
				1.00379
				1.00067
				1.0024
				0.998287
				1.0005
				0.995312
				0.998034
				0.991725
				0.994977
				0.98752
				0.991314
				0.982706
				0.98705
				0.977307
				0.982206
				0.971358
				0.976814
				0.96491
				0.970922
				0.958023
				0.964584
				0.950765
				0.957868
				0.943217
				0.950846
				0.935469
				0.943602
				0.927618
				0.936227
				0.919777
				0.928823
				0.912065
				0.921498
				0.904612
				0.914373
				0.897559
				0.907576
				0.891056
				0.901242
				0.885259
				0.895515
				0.880323
				0.890537
				0.8764
				0.886451
				0.873621
				0.883383
				0.872097
				0.881444
				0.871896
				0.880712
				0.873046
				0.881231
				0.875525
				0.883002
				0.879271
				0.885986
				0.884181
				0.890106
				0.890132
				0.89526
				0.89698
				0.901325
				0.904581
				0.908169
				0.91279
				0.915657
				0.921468
				0.923658
				0.930488
				0.932046
				0.93973
				0.940707
				0.949086
				0.949531
				0.958459
				0.958421
				0.967759
				0.967289
				0.976909
				0.976054
				0.985836
				0.984645
				0.994475
				0.992995
				1.00277
				1.00105
				1.01067
				1.00875
				1.01812
				1.01605
				1.02509
				1.02291
				1.03153
				1.02929
				1.03742
				1.03516
				1.04273
				1.04049
				1.04743
				1.04524
				1.05149
				1.04941
				1.0549
				1.05297
				1.05765
				1.0559
				1.05973
				1.0582
				1.06111
				1.05984
				1.06181
				1.06083
				1.06181
				1.06117
				1.06111
				1.06083
				1.05973
				1.05984
				1.05765
				1.0582
				1.0549
				1.0559
				1.05149
				1.05297
				1.04743
				1.04941
				1.04273
				1.04524
				1.03742
				1.04049
				1.03153
				1.03516
				1.02509
				1.02929
				1.01812
				1.02291
				1.01067
				1.01605
				1.00277
				1.00875
				0.994475
				1.00105
				0.985836
				0.992995
				0.976909
				0.984645
				0.967759
				0.976054
				0.958459
				0.967289
				0.949086
				0.958421
				0.93973
				0.949531
				0.930488
				0.940707
				0.921468
				0.932047
				0.91279
				0.923658
				0.904581
				0.915657
				0.89698
				0.908169
				0.890132
				0.901325
				0.884181
				0.89526
				0.879271
				0.890106
				0.875525
				0.885986
				0.873046
				0.883002
				0.871896
				0.881231
				0.872097
				0.880712
				0.873621
				0.881444
				0.8764
				0.883383
				0.880324
				0.886451
				0.885259
				0.890537
				0.891056
				0.895515
				0.897559
				0.901242
				0.904612
				0.907576
				0.912065
				0.914373
				0.919777
				0.921498
				0.927619
				0.928823
				0.935469
				0.936227
				0.943217
				0.943602
				0.950765
				0.950846
				0.958023
				0.957868
				0.96491
				0.964584
				0.971358
				0.970922
				0.977307
				0.976814
				0.982706
				0.982206
				0.98752
				0.98705
				0.991725
				0.991314
				0.995312
				0.994977
				0.998287
				0.998034
				1.00067
				1.0005
				1.00251
				1.0024
				1.00384
				1.00379
				1.00473
				1.00472
				1.00524
				1.00525
				1.00543
				1.00547
				1.00541
				1.00545
				1.00529
				1.00532
				1.00519
				1.00517
				1.00523
				1.00523
				1.00541
				1.00532
				1.00569
				1.00554
				1.00596
				1.00576
				1.00607
				1.00586
				1.00592
				1.00571
				1.00543
				1.00524
				1.00452
				1.00437
				1.00315
				1.00305
				1.00126
				1.00125
				0.998848
				0.998925
				0.995892
				0.996061
				0.992407
				0.992654
				0.988414
				0.988715
				0.983945
				0.984267
				0.979042
				0.979341
				0.973751
				0.97398
				0.968127
				0.968233
				0.962229
				0.962156
				0.956124
				0.955813
				0.949886
				0.949277
				0.943595
				0.942628
				0.937341
				0.935956
				0.931221
				0.929357
				0.925341
				0.922941
				0.919813
				0.916823
				0.914754
				0.911126
				0.910286
				0.90598
				0.906526
				0.901516
				0.903584
				0.897859
				0.901559
				0.895126
				0.900525
				0.893415
				0.900531
				0.892796
				0.901595
				0.893309
				0.903702
				0.894954
				0.906803
				0.897696
				0.910828
				0.90147
				0.915682
				0.906182
				0.921262
				0.911722
				0.927453
				0.917972
				0.934145
				0.924809
				0.941227
				0.932112
				0.948594
				0.939766
				0.956149
				0.947665
				0.963804
				0.955708
				0.971475
				0.963807
				0.979088
				0.971878
				0.986579
				0.97985
				0.993885
				0.987655
				1.00095
				0.995234
				1.00774
				1.00253
				1.01419
				1.00951
				1.02028
				1.01611
				1.02596
				1.02231
				1.03122
				1.02808
				1.03602
				1.03337
				1.04034
				1.03817
				1.04416
				1.04246
				1.04747
				1.04621
				1.05024
				1.04941
				1.05248
				1.05205
				1.05416
				1.05411
				1.05529
				1.05558
				1.05585
				1.05647
				1.05585
				1.05677
				1.05529
				1.05647
				1.05416
				1.05558
				1.05248
				1.05411
				1.05024
				1.05205
				1.04747
				1.04941
				1.04416
				1.04621
				1.04034
				1.04246
				1.03602
				1.03817
				1.03122
				1.03337
				1.02596
				1.02808
				1.02028
				1.02231
				1.01419
				1.01611
				1.00774
				1.00951
				1.00095
				1.00253
				0.993885
				0.995234
				0.986579
				0.987655
				0.979089
				0.97985
				0.971475
				0.971878
				0.963804
				0.963807
				0.956149
				0.955708
				0.948594
				0.947665
				0.941227
				0.939766
				0.934145
				0.932112
				0.927453
				0.924809
				0.921262
				0.917972
				0.915683
				0.911722
				0.910828
				0.906182
				0.906803
				0.90147
				0.903702
				0.897696
				0.901595
				0.894954
				0.900531
				0.893309
				0.900525
				0.892796
				0.901559
				0.893415
				0.903584
				0.895126
				0.906526
				0.897859
				0.910286
				0.901516
				0.914754
				0.90598
				0.919813
				0.911127
				0.925341
				0.916823
				0.931221
				0.922941
				0.937341
				0.929358
				0.943595
				0.935956
				0.949886
				0.942628
				0.956124
				0.949277
				0.962229
				0.955813
				0.968127
				0.962156
				0.973751
				0.968233
				0.979042
				0.97398
				0.983945
				0.979341
				0.988414
				0.984267
				0.992407
				0.988715
				0.995892
				0.992654
				0.998848
				0.996061
				1.00126
				0.998925
				1.00315
				1.00125
				1.00452
				1.00305
				1.00543
				1.00437
				1.00592
				1.00524
				1.00607
				1.00571
				1.00596
				1.00586
				1.00569
				1.00576
				1.00541
				1.00554
				1.00523
				1.00532
				1.00497
				1.00495
				1.00522
				1.00509
				1.00559
				1.00545
				1.00595
				1.00592
				1.00613
				1.00632
				1.00602
				1.00652
				1.00556
				1.00641
				1.00469
				1.00591
				1.00338
				1.00498
				1.00159
				1.00357
				0.999329
				1.00168
				0.996586
				0.999309
				0.99338
				0.996471
				0.989734
				0.993194
				0.98568
				0.98951
				0.981252
				0.985455
				0.976492
				0.981069
				0.971446
				0.976397
				0.966165
				0.971487
				0.960707
				0.966391
				0.955135
				0.961167
				0.949522
				0.955881
				0.943946
				0.950603
				0.938496
				0.945413
				0.933263
				0.940395
				0.928351
				0.935641
				0.923863
				0.931246
				0.919906
				0.92731
				0.916587
				0.92393
				0.914003
				0.9212
				0.91224
				0.919203
				0.911364
				0.918007
				0.911417
				0.917663
				0.912414
				0.918196
				0.914342
				0.919605
				0.917161
				0.921867
				0.920805
				0.924932
				0.925194
				0.928736
				0.930234
				0.933196
				0.935825
				0.938223
				0.941867
				0.943725
				0.948259
				0.949607
				0.954907
				0.95578
				0.961723
				0.962156
				0.968624
				0.968655
				0.975537
				0.975203
				0.982393
				0.981732
				0.989133
				0.988183
				0.995702
				0.994498
				1.00205
				1.00063
				1.00814
				1.00654
				1.01392
				1.01217
				1.01938
				1.01751
				1.02446
				1.02252
				1.02916
				1.02717
				1.03345
				1.03144
				1.0373
				1.03531
				1.04071
				1.03876
				1.04366
				1.04178
				1.04613
				1.04435
				1.04812
				1.04647
				1.04962
				1.04813
				1.05062
				1.04932
				1.05112
				1.05003
				1.05112
				1.05027
				1.05062
				1.05003
				1.04962
				1.04932
				1.04812
				1.04813
				1.04613
				1.04647
				1.04366
				1.04435
				1.04071
				1.04178
				1.0373
				1.03876
				1.03345
				1.03531
				1.02916
				1.03144
				1.02446
				1.02717
				1.01938
				1.02252
				1.01392
				1.01751
				1.00814
				1.01217
				1.00205
				1.00654
				0.995702
				1.00063
				0.989133
				0.994498
				0.982393
				0.988183
				0.975537
				0.981732
				0.968624
				0.975203
				0.961723
				0.968655
				0.954907
				0.962156
				0.948259
				0.95578
				0.941867
				0.949607
				0.935825
				0.943725
				0.930234
				0.938223
				0.925194
				0.933195
				0.920805
				0.928736
				0.917161
				0.924932
				0.914342
				0.921867
				0.912414
				0.919605
				0.911417
				0.918196
				0.911364
				0.917663
				0.91224
				0.918007
				0.914003
				0.919203
				0.916587
				0.9212
				0.919906
				0.92393
				0.923863
				0.92731
				0.928351
				0.931246
				0.933263
				0.935641
				0.938496
				0.940395
				0.943947
				0.945413
				0.949522
				0.950603
				0.955135
				0.955881
				0.960707
				0.961167
				0.966165
				0.966391
				0.971446
				0.971487
				0.976493
				0.976397
				0.981252
				0.981069
				0.98568
				0.985455
				0.989734
				0.98951
				0.99338
				0.993194
				0.996586
				0.996471
				0.999329
				0.999309
				1.00159
				1.00168
				1.00338
				1.00357
				1.00469
				1.00498
				1.00556
				1.00591
				1.00602
				1.00641
				1.00613
				1.00652
				1.00595
				1.00632
				1.00559
				1.00592
				1.00522
				1.00545
				1.00497
				1.00509
				1.00436
				1.00426
				1.00472
				1.00444
				1.00532
				1.00489
				1.00597
				1.00546
				1.00649
				1.00595
				1.00674
				1.0062
				1.00661
				1.00612
				1.00606
				1.00565
				1.00506
				1.00476
				1.00362
				1.00344
				1.00174
				1.00167
				0.999448
				0.999488
				0.996776
				0.996897
				0.993756
				0.993928
				0.990423
				0.99061
				0.986811
				0.986975
				0.982956
				0.983057
				0.978896
				0.978896
				0.974675
				0.974531
				0.970338
				0.970008
				0.965935
				0.96538
				0.961524
				0.960702
				0.957168
				0.956038
				0.952934
				0.951458
				0.948895
				0.947036
				0.94513
				0.942854
				0.941718
				0.938997
				0.938739
				0.935551
				0.93627
				0.932603
				0.93438
				0.930234
				0.933131
				0.928515
				0.932569
				0.927507
				0.932722
				0.927251
				0.933601
				0.92777
				0.935194
				0.929063
				0.937473
				0.931109
				0.940393
				0.933865
				0.943893
				0.937274
				0.947906
				0.941266
				0.952356
				0.945761
				0.957167
				0.950679
				0.962262
				0.955935
				0.967566
				0.961449
				0.97301
				0.967143
				0.978526
				0.972945
				0.984055
				0.978788
				0.989541
				0.984612
				0.994935
				0.990361
				1.00019
				0.995986
				1.00527
				1.00144
				1.01014
				1.00669
				1.01477
				1.0117
				1.01913
				1.01644
				1.02319
				1.02088
				1.02695
				1.025
				1.03037
				1.02878
				1.03344
				1.03221
				1.03616
				1.03526
				1.0385
				1.03792
				1.04047
				1.04019
				1.04205
				1.04206
				1.04324
				1.04353
				1.04404
				1.04457
				1.04444
				1.0452
				1.04444
				1.04541
				1.04404
				1.0452
				1.04324
				1.04457
				1.04205
				1.04353
				1.04047
				1.04206
				1.0385
				1.04019
				1.03616
				1.03792
				1.03344
				1.03526
				1.03037
				1.03221
				1.02695
				1.02878
				1.02319
				1.025
				1.01913
				1.02088
				1.01477
				1.01644
				1.01014
				1.0117
				1.00527
				1.00669
				1.00019
				1.00144
				0.994936
				0.995986
				0.989541
				0.990361
				0.984055
				0.984612
				0.978526
				0.978788
				0.97301
				0.972945
				0.967566
				0.967143
				0.962262
				0.961449
				0.957167
				0.955935
				0.952356
				0.950679
				0.947906
				0.945761
				0.943893
				0.941266
				0.940393
				0.937274
				0.937473
				0.933865
				0.935194
				0.931109
				0.933601
				0.929063
				0.932722
				0.92777
				0.932569
				0.927251
				0.933131
				0.927507
				0.93438
				0.928515
				0.93627
				0.930234
				0.938739
				0.932603
				0.941718
				0.935552
				0.94513
				0.938997
				0.948895
				0.942854
				0.952934
				0.947036
				0.957168
				0.951458
				0.961524
				0.956038
				0.965935
				0.960702
				0.970338
				0.96538
				0.974675
				0.970008
				0.978897
				0.974531
				0.982956
				0.978896
				0.986811
				0.983058
				0.990423
				0.986975
				0.993756
				0.99061
				0.996776
				0.993928
				0.999448
				0.996897
				1.00174
				0.999488
				1.00362
				1.00167
				1.00506
				1.00344
				1.00606
				1.00476
				1.00661
				1.00565
				1.00674
				1.00612
				1.00649
				1.0062
				1.00597
				1.00595
				1.00532
				1.00546
				1.00472
				1.00489
				1.00436
				1.00444
				1.00328
				1.00331
				1.00371
				1.00355
				1.00443
				1.00419
				1.00519
				1.00505
				1.00578
				1.00586
				1.00607
				1.00645
				1.00598
				1.00667
				1.00547
				1.00648
				1.00456
				1.00585
				1.00323
				1.0048
				1.00152
				1.00334
				0.999449
				1.00152
				0.997051
				0.999363
				0.994354
				0.996908
				0.991387
				0.994186
				0.988182
				0.991229
				0.98477
				0.988068
				0.981184
				0.984733
				0.977462
				0.981259
				0.973644
				0.977681
				0.969776
				0.974042
				0.965907
				0.970385
				0.962092
				0.96676
				0.958393
				0.963221
				0.954872
				0.959827
				0.951597
				0.956638
				0.948639
				0.95372
				0.946066
				0.951136
				0.943945
				0.948948
				0.942335
				0.947216
				0.941289
				0.94599
				0.940844
				0.945312
				0.941026
				0.94521
				0.941841
				0.945699
				0.943281
				0.946778
				0.945321
				0.948431
				0.94792
				0.950629
				0.951029
				0.953329
				0.954587
				0.956481
				0.958529
				0.960026
				0.962788
				0.963903
				0.967297
				0.96805
				0.971989
				0.972402
				0.976803
				0.976901
				0.98168
				0.981489
				0.986565
				0.986112
				0.991411
				0.990722
				0.996172
				0.995275
				1.00081
				0.999731
				1.00529
				1.00405
				1.00958
				1.00821
				1.01365
				1.01218
				1.01748
				1.01593
				1.02105
				1.01944
				1.02434
				1.0227
				1.02734
				1.02568
				1.03004
				1.02839
				1.03242
				1.03079
				1.03447
				1.0329
				1.03619
				1.03469
				1.03757
				1.03616
				1.03861
				1.03731
				1.03931
				1.03814
				1.03966
				1.03863
				1.03966
				1.0388
				1.03931
				1.03863
				1.03861
				1.03814
				1.03757
				1.03731
				1.03619
				1.03616
				1.03447
				1.03469
				1.03242
				1.0329
				1.03004
				1.03079
				1.02734
				1.02839
				1.02434
				1.02568
				1.02105
				1.0227
				1.01748
				1.01944
				1.01365
				1.01593
				1.00958
				1.01218
				1.00529
				1.00821
				1.00081
				1.00405
				0.996172
				0.999731
				0.991411
				0.995275
				0.986565
				0.990722
				0.98168
				0.986112
				0.976803
				0.981488
				0.971989
				0.976901
				0.967297
				0.972402
				0.962788
				0.96805
				0.958529
				0.963903
				0.954587
				0.960026
				0.951029
				0.956481
				0.94792
				0.953329
				0.945321
				0.950629
				0.943281
				0.948431
				0.941841
				0.946778
				0.941026
				0.945699
				0.940844
				0.94521
				0.941289
				0.945312
				0.942335
				0.94599
				0.943945
				0.947216
				0.946066
				0.948949
				0.948639
				0.951136
				0.951597
				0.95372
				0.954872
				0.956638
				0.958393
				0.959827
				0.962092
				0.963221
				0.965907
				0.96676
				0.969776
				0.970385
				0.973644
				0.974042
				0.977462
				0.977681
				0.981184
				0.981259
				0.98477
				0.984733
				0.988182
				0.988068
				0.991387
				0.991229
				0.994354
				0.994186
				0.997051
				0.996908
				0.999449
				0.999363
				1.00152
				1.00152
				1.00323
				1.00334
				1.00456
				1.0048
				1.00547
				1.00585
				1.00598
				1.00648
				1.00607
				1.00667
				1.00578
				1.00645
				1.00519
				1.00587
				1.00443
				1.00505
				1.00371
				1.00419
				1.00328
				1.00355
				1.00208
				1.00187
				1.00265
				1.00216
				1.00362
				1.00292
				1.00469
				1.0039
				1.00561
				1.00483
				1.00618
				1.00548
				1.00633
				1.00575
				1.00605
				1.00561
				1.00534
				1.00506
				1.00426
				1.00412
				1.00285
				1.00282
				1.00113
				1.0012
				0.999158
				0.999283
				0.996955
				0.99711
				0.994552
				0.994707
				0.991976
				0.992101
				0.989252
				0.98932
				0.98641
				0.986392
				0.983478
				0.983346
				0.980488
				0.980217
				0.977477
				0.977038
				0.974483
				0.973852
				0.971549
				0.9707
				0.96872
				0.96763
				0.966047
				0.964692
				0.963579
				0.961942
				0.961368
				0.959432
				0.959463
				0.957219
				0.957913
				0.955356
				0.95676
				0.953893
				0.956039
				0.952871
				0.955777
				0.952327
				0.955992
				0.952283