<VTKFile type="UnstructuredGrid" version="0.1" byte_order="LittleEndian">
<UnstructuredGrid>
	<Piece NumberOfPoints="4224" NumberOfCells="8192">
		<CellData Scalars="density" Vectors="velocity">
			<DataArray type="Float64" Name="density" Format="ascii">
				1.00325
				1.00314
				1.00314
				1.00309
				1.00287
				1.00291
				1.00233
				1.00253
				1.00141
				1.00183
				1
				1.00072
				0.997996
				0.999087
				0.995306
				0.996845
				0.991843
				0.993909
				0.987526
				0.990199
				0.98229
				0.985644
				0.976082
				0.98019
				0.968881
				0.973802
				0.960686
				0.966468
				0.951519
				0.9582
				0.941435
				0.949034
				0.930495
				0.939029
				0.918811
				0.928266
				0.906485
				0.916849
				0.893664
				0.904898
				0.880499
				0.892554
				0.867135
				0.879965
				0.853768
				0.867294
				0.840598
				0.854726
				0.827827
				0.842455
				0.815683
				0.830687
				0.804374
				0.819636
				0.794185
				0.809529
				0.785383
				0.800623
				0.778201
				0.793159
				0.772853
				0.787354
				0.769615
				0.78342
				0.768558
				0.781531
				0.769815
				0.781768
				0.77329
				0.784152
				0.778868
				0.788586
				0.786406
				0.79494
				0.795685
				0.803034
				0.806405
				0.812639
				0.81835
				0.823509
				0.831287
				0.835433
				0.845005
				0.848198
				0.859305
				0.861612
				0.873967
				0.875483
				0.888859
				0.889642
				0.903842
				0.903951
				0.918737
				0.918271
				0.93348
				0.932473
				0.947893
				0.946448
				0.961908
				0.960079
				0.975414
				0.973276
				0.988331
				0.985947
				1.00057
				0.998012
				1.01205
				1.00939
				1.02271
				1.02001
				1.03249
				1.02982
				1.04133
				1.03874
				1.04917
				1.04674
				1.05597
				1.05377
				1.0617
				1.05978
				1.06632
				1.06474
				1.06981
				1.06863
				1.07214
				1.07143
				1.07332
				1.07311
				1.07332
				1.07367
				1.07214
				1.07311
				1.06981
				1.07143
				1.06632
				1.06863
				1.0617
				1.06474
				1.05597
				1.05978
				1.04917
				1.05377
				1.04133
				1.04674
				1.03249
				1.03874
				1.02271
				1.02982
				1.01205
				1.02001
				1.00057
				1.00939
				0.988331
				0.998012
				0.975414
				0.985948
				0.961909
				0.973276
				0.947885
				0.960076
				0.933481
				0.946447
				0.918746
				0.932476
				0.903838
				0.918272
				0.888859
				0.90395
				0.873966
				0.889641
				0.859303
				0.875482
				0.845003
				0.86161
				0.831296
				0.848202
				0.818346
				0.835433
				0.806405
				0.823508
				0.795684
				0.812638
				0.786406
				0.803034
				0.778869
				0.79494
				0.77329
				0.788586
				0.769815
				0.784152
				0.768558
				0.781768
				0.769615
				0.781531
				0.772853
				0.78342
				0.778201
				0.787354
				0.785383
				0.793159
				0.794184
				0.800623
				0.804374
				0.809529
				0.815683
				0.819636
				0.827828
				0.830687
				0.840598
				0.842455
				0.853768
				0.854726
				0.867135
				0.867294
				0.8805
				0.879966
				0.893664
				0.892554
				0.906485
				0.904898
				0.918812
				0.916849
				0.930491
				0.928265
				0.941437
				0.939029
				0.951519
				0.949034
				0.960687
				0.9582
				0.968881
				0.966468
				0.976082
				0.973802
				0.98229
				0.98019
				0.987526
				0.985644
				0.991844
				0.990199
				0.995306
				0.993909
				0.997996
				0.996845
				1
				0.999087
				1.00141
				1.00072
				1.00233
				1.00183
				1.00287
				1.00253
				1.00314
				1.00291
				1.00325
				1.00309
				1.00367
				1.00396
				1.00362
				1.00394
				1.00344
				1.00385
				1.00306
				1.0036
				1.00237
				1.00307
				1.00127
				1.00216
				0.999673
				1.00077
				0.997501
				0.998809
				0.994678
				0.9962
				0.991136
				0.992865
				0.986817
				0.988739
				0.981681
				0.983769
				0.975703
				0.97792
				0.96888
				0.97118
				0.961232
				0.963557
				0.952799
				0.955082
				0.943644
				0.945807
				0.933844
				0.935806
				0.923501
				0.92517
				0.912726
				0.914012
				0.90165
				0.902456
				0.890414
				0.890639
				0.879173
				0.878718
				0.868098
				0.866861
				0.857371
				0.855253
				0.847183
				0.844087
				0.837744
				0.833573
				0.829269
				0.823937
				0.821982
				0.81542
				0.816101
				0.808255
				0.811823
				0.802666
				0.809314
				0.798868
				0.808691
				0.797012
				0.809995
				0.797199
				0.813193
				0.799433
				0.818183
				0.803635
				0.824817
				0.809677
				0.832907
				0.817375
				0.842242
				0.826503
				0.852616
				0.836835
				0.863832
				0.848156
				0.875704
				0.860263
				0.888058
				0.872963
				0.900736
				0.886075
				0.913596
				0.899445
				0.926508
				0.912935
				0.939358
				0.926411
				0.952032
				0.939763
				0.964437
				0.952874
				0.976479
				0.965652
				0.988076
				0.978005
				0.999154
				0.989853
				1.00964
				1.00112
				1.01947
				1.01173
				1.0286
				1.02163
				1.03695
				1.03076
				1.0445
				1.03907
				1.0512
				1.04651
				1.057
				1.05304
				1.06189
				1.05862
				1.06583
				1.06323
				1.0688
				1.06684
				1.07079
				1.06943
				1.07179
				1.07099
				1.07179
				1.07151
				1.07079
				1.07099
				1.0688
				1.06943
				1.06583
				1.06684
				1.06189
				1.06323
				1.057
				1.05862
				1.0512
				1.05304
				1.0445
				1.04651
				1.03695
				1.03907
				1.0286
				1.03076
				1.01948
				1.02163
				1.00964
				1.01173
				0.999154
				1.00112
				0.988076
				0.989853
				0.976478
				0.978005
				0.964437
				0.965651
				0.952033
				0.952873
				0.939358
				0.939764
				0.926509
				0.926413
				0.913596
				0.912935
				0.900736
				0.899444
				0.888058
				0.886074
				0.875705
				0.872962
				0.863833
				0.860263
				0.852616
				0.848158
				0.842242
				0.836835
				0.832906
				0.826502
				0.824817
				0.817375
				0.818183
				0.809676
				0.813193
				0.803635
				0.809995
				0.799433
				0.808691
				0.797199
				0.809314
				0.797012
				0.811823
				0.798868
				0.816101
				0.802666
				0.821982
				0.808255
				0.829269
				0.81542
				0.837744
				0.823937
				0.847184
				0.833573
				0.857371
				0.844088
				0.868098
				0.855253
				0.879173
				0.866861
				0.890414
				0.878718
				0.90165
				0.89064
				0.912726
				0.902456
				0.923501
				0.914012
				0.933844
				0.92517
				0.943644
				0.935806
				0.952799
				0.945806
				0.961232
				0.955082
				0.96888
				0.963557
				0.975703
				0.97118
				0.981681
				0.97792
				0.986817
				0.983769
				0.991136
				0.98874
				0.994678
				0.992865
				0.997501
				0.9962
				0.999673
				0.99881
				1.00127
				1.00077
				1.00237
				1.00216
				1.00306
				1.00307
				1.00344
				1.0036
				1.00362
				1.00385
				1.00367
				1.00394
				1.0045
				1.0042
				1.0045
				1.0042
				1.00443
				1.00417
				1.00419
				1.00402
				1.00366
				1.00367
				1.00274
				1.003
				1.00136
				1.00194
				0.99943
				1.00041
				0.996891
				0.998341
				0.993675
				0.995657
				0.989725
				0.992304
				0.985005
				0.988233
				0.979493
				0.983416
				0.973187
				0.977839
				0.966105
				0.971512
				0.958286
				0.964461
				0.949786
				0.956734
				0.940678
				0.948395
				0.931053
				0.939524
				0.921015
				0.930217
				0.910682
				0.920583
				0.900185
				0.910743
				0.889669
				0.90083
				0.879292
				0.89099
				0.869222
				0.88138
				0.859644
				0.87217
				0.850755
				0.863539
				0.842762
				0.855678
				0.835877
				0.848782
				0.830309
				0.843047
				0.826251
				0.838657
				0.82386
				0.83577
				0.82325
				0.834507
				0.82446
				0.834934
				0.827461
				0.837055
				0.832161
				0.84081
				0.838415
				0.846089
				0.846044
				0.852742
				0.854849
				0.860595
				0.864633
				0.869466
				0.875204
				0.879173
				0.886384
				0.889542
				0.898006
				0.900414
				0.909921
				0.911638
				0.921993
				0.92308
				0.934099
				0.934616
				0.94613
				0.946135
				0.957983
				0.957537
				0.969568
				0.968728
				0.980801
				0.979625
				0.991606
				0.990151
				1.00191
				1.00024
				1.01166
				1.00982
				1.02079
				1.01884
				1.02926
				1.02724
				1.037
				1.03499
				1.04399
				1.04203
				1.05019
				1.04833
				1.05556
				1.05386
				1.06008
				1.05858
				1.06372
				1.06248
				1.06646
				1.06553
				1.0683
				1.06772
				1.06922
				1.06904
				1.06922
				1.06948
				1.0683
				1.06904
				1.06646
				1.06772
				1.06372
				1.06553
				1.06008
				1.06248
				1.05556
				1.05858
				1.05019
				1.05386
				1.04399
				1.04833
				1.037
				1.04203
				1.02926
				1.03499
				1.02079
				1.02724
				1.01166
				1.01884
				1.00191
				1.00982
				0.991606
				1.00024
				0.980801
				0.99015
				0.969568
				0.979624
				0.957983
				0.968728
				0.946131
				0.957537
				0.934099
				0.946135
				0.921993
				0.934616
				0.909921
				0.92308
				0.898006
				0.911638
				0.886385
				0.900414
				0.875205
				0.889543
				0.864633
				0.879173
				0.854849
				0.869466
				0.846044
				0.860595
				0.838415
				0.852742
				0.832161
				0.846089
				0.827461
				0.84081
				0.82446
				0.837055
				0.82325
				0.834934
				0.82386
				0.834507
				0.826251
				0.83577
				0.830309
				0.838657
				0.835877
				0.843047
				0.842762
				0.848782
				0.850755
				0.855678
				0.859645
				0.863539
				0.869222
				0.87217
				0.879292
				0.88138
				0.889669
				0.89099
				0.900185
				0.90083
				0.910682
				0.910743
				0.921015
				0.920583
				0.931053
				0.930217
				0.940677
				0.939524
				0.949786
				0.948395
				0.958286
				0.956734
				0.966105
				0.964461
				0.973187
				0.971512
				0.979493
				0.97784
				0.985005
				0.983416
				0.989725
				0.988233
				0.993675
				0.992303
				0.996891
				0.995657
				0.99943
				0.998341
				1.00136
				1.00041
				1.00274
				1.00194
				1.00366
				1.003
				1.00419
				1.00367
				1.00443
				1.00402
				1.0045
				1.00417
				1.0045
				1.0042
				1.0047
				1.00498
				1.00474
				1.00501
				1.00476
				1.00506
				1.00468
				1.00503
				1.00438
				1.00481
				1.00377
				1.00429
				1.00278
				1.00339
				1.00134
				1.00204
				0.999366
				1.00016
				0.996814
				0.997709
				0.993631
				0.99462
				0.989784
				0.990855
				0.985258
				0.986392
				0.980055
				0.981223
				0.974198
				0.97536
				0.967723
				0.968831
				0.960686
				0.961682
				0.953152
				0.953973
				0.945202
				0.945776
				0.936926
				0.937178
				0.928426
				0.928277
				0.919814
				0.919183
				0.911212
				0.910017
				0.902752
				0.900911
				0.89458
				0.89201
				0.886849
				0.883471
				0.879722
				0.875463
				0.873366
				0.868162
				0.867952
				0.861753
				0.863644
				0.85642
				0.860586
				0.852335
				0.858896
				0.849647
				0.858652
				0.848471
				0.859883
				0.848867
				0.862562
				0.850842
				0.86662
				0.854341
				0.871944
				0.859264
				0.878396
				0.865469
				0.885824
				0.872796
				0.894067
				0.881072
				0.902971
				0.890127
				0.912387
				0.899797
				0.922178
				0.909927
				0.932217
				0.920379
				0.942387
				0.931023
				0.952584
				0.941744
				0.962712
				0.952438
				0.972687
				0.963009
				0.98243
				0.973374
				0.991869
				0.983453
				1.00094
				0.993178
				1.00959
				1.00249
				1.01776
				1.01132
				1.02541
				1.01962
				1.03249
				1.02735
				1.03896
				1.03447
				1.0448
				1.04093
				1.04997
				1.04671
				1.05445
				1.05178
				1.05822
				1.05611
				1.06125
				1.05968
				1.06354
				1.06247
				1.06507
				1.06447
				1.06584
				1.06568
				1.06584
				1.06608
				1.06507
				1.06568
				1.06354
				1.06447
				1.06125
				1.06247
				1.05822
				1.05968
				1.05445
				1.05611
				1.04997
				1.05178
				1.0448
				1.04671
				1.03896
				1.04093
				1.03249
				1.03447
				1.02541
				1.02735
				1.01776
				1.01962
				1.00959
				1.01132
				1.00094
				1.00248
				0.991869
				0.993178
				0.98243
				0.983453
				0.972687
				0.973374
				0.962712
				0.963009
				0.952584
				0.952438
				0.942387
				0.941745
				0.932217
				0.931023
				0.922179
				0.920379
				0.912387
				0.909927
				0.902971
				0.899797
				0.894067
				0.890127
				0.885824
				0.881073
				0.878396
				0.872796
				0.871944
				0.865469
				0.86662
				0.859264
				0.862562
				0.854341
				0.859883
				0.850842
				0.858652
				0.848867
				0.858896
				0.848471
				0.860586
				0.849647
				0.863644
				0.852335
				0.867952
				0.85642
				0.873366
				0.861753
				0.879722
				0.868162
				0.886849
				0.875463
				0.89458
				0.883471
				0.902752
				0.89201
				0.911212
				0.900911
				0.919814
				0.910017
				0.928426
				0.919183
				0.936926
				0.928277
				0.945202
				0.937178
				0.953152
				0.945776
				0.960686
				0.953972
				0.967723
				0.961682
				0.974198
				0.968831
				0.980055
				0.97536
				0.985258
				0.981223
				0.989784
				0.986392
				0.993631
				0.990855
				0.996814
				0.99462
				0.999366
				0.997709
				1.00134
				1.00016
				1.00278
				1.00204
				1.00377
				1.00339
				1.00438
				1.00429
				1.00468
				1.00481
				1.00476
				1.00503
				1.00474
				1.00506
				1.0047
				1.00501
				1.00533
				1.00504
				1.00543
				1.00509
				1.00556
				1.00523
				1.00559
				1.00535
				1.00541
				1.00535
				1.00491
				1.00513
				1.00403
				1.00459
				1.00271
				1.00366
				1.00088
				1.00227
				0.998496
				1.00037
				0.99552
				0.997908
				0.991929
				0.994851
				0.987717
				0.991188
				0.982893
				0.986923
				0.977481
				0.982077
				0.971519
				0.976684
				0.965055
				0.970789
				0.958152
				0.964448
				0.950878
				0.957728
				0.943313
				0.950704
				0.935547
				0.943457
				0.92768
				0.936079
				0.919821
				0.928673
				0.912092
				0.921347
				0.904622
				0.914221
				0.897553
				0.907424
				0.891035
				0.901092
				0.885223
				0.895367
				0.880274
				0.890395
				0.876337
				0.886314
				0.873547
				0.883255
				0.872012
				0.881326
				0.871802
				0.880606
				0.872944
				0.881138
				0.875418
				0.882924
				0.879158
				0.885922
				0.884064
				0.890058
				0.890011
				0.895229
				0.896856
				0.90131
				0.904454
				0.90817
				0.912661
				0.915674
				0.921338
				0.923691
				0.930356
				0.932094
				0.939597
				0.940769
				0.948952
				0.949607
				0.958324
				0.95851
				0.967625
				0.96739
				0.976774
				0.976168
				0.985701
				0.98477
				0.99434
				0.993131
				1.00263
				1.00119
				1.01053
				1.0089
				1.01799
				1.01621
				1.02495
				1.02308
				1.0314
				1.02947
				1.03729
				1.03535
				1.0426
				1.04068
				1.04729
				1.04544
				1.05136
				1.04962
				1.05477
				1.05318
				1.05752
				1.05612
				1.05959
				1.05841
				1.06098
				1.06006
				1.06168
				1.06105
				1.06168
				1.06138
				1.06098
				1.06105
				1.05959
				1.06006
				1.05752
				1.05841
				1.05477
				1.05612
				1.05136
				1.05318
				1.04729
				1.04962
				1.0426
				1.04544
				1.03729
				1.04068
				1.0314
				1.03535
				1.02495
				1.02947
				1.01799
				1.02308
				1.01053
				1.01621
				1.00263
				1.0089
				0.99434
				1.00119
				0.9857
				0.993131
				0.976774
				0.98477
				0.967625
				0.976168
				0.958324
				0.96739
				0.948952
				0.95851
				0.939597
				0.949607
				0.930356
				0.940768
				0.921338
				0.932094
				0.912661
				0.923691
				0.904454
				0.915674
				0.896856
				0.90817
				0.89001
				0.90131
				0.884064
				0.895229
				0.879158
				0.890058
				0.875418
				0.885922
				0.872944
				0.882924
				0.871802
				0.881138
				0.872012
				0.880606
				0.873547
				0.881326
				0.876337
				0.883255
				0.880274
				0.886314
				0.885223
				0.890395
				0.891035
				0.895367
				0.897553
				0.901092
				0.904622
				0.907424
				0.912092
				0.914221
				0.919821
				0.921347
				0.92768
				0.928673
				0.935547
				0.936079
				0.943313
				0.943457
				0.950878
				0.950704
				0.958152
				0.957728
				0.965055
				0.964448
				0.971519
				0.970788
				0.977481
				0.976684
				0.982893
				0.982077
				0.987717
				0.986923
				0.991929
				0.991188
				0.99552
				0.994851
				0.998496
				0.997908
				1.00088
				1.00037
				1.00271
				1.00227
				1.00403
				1.00366
				1.00491
				1.00459
				1.00541
				1.00513
				1.00559
				1.00535
				1.00556
				1.00535
				1.00543
				1.00523
				1.00533
				1.00509
				1.00516
				1.00539
				1.00533
				1.00548
				1.00561
				1.0057
				1.00586
				1.00593
				1.00597
				1.00604
				1.00582
				1.0059
				1.00532
				1.00543
				1.00441
				1.00456
				1.00304
				1.00325
				1.00115
				1.00145
				0.998735
				0.999116
				0.995779
				0.996245
				0.992292
				0.992828
				0.988298
				0.988879
				0.983827
				0.984418
				0.978922
				0.97948
				0.973629
				0.974106
				0.968002
				0.968345
				0.962102
				0.962254
				0.955995
				0.955898
				0.949754
				0.949347
				0.943461
				0.942684
				0.937205
				0.935998
				0.931085
				0.929385
				0.925205
				0.922954
				0.919677
				0.916822
				0.914621
				0.911111
				0.910156
				0.905952
				0.906401
				0.901474
				0.903466
				0.897805
				0.901449
				0.89506
				0.900424
				0.893338
				0.900442
				0.89271
				0.901519
				0.893214
				0.903639
				0.894852
				0.906755
				0.897589
				0.910794
				0.901358
				0.915663
				0.906066
				0.921258
				0.911603
				0.927464
				0.917851
				0.93417
				0.924686
				0.941265
				0.931988
				0.948646
				0.939641
				0.956214
				0.947539
				0.963881
				0.955583
				0.971564
				0.963681
				0.979189
				0.971753
				0.986689
				0.979724
				0.994005
				0.98753
				1.00108
				0.995109
				1.00787
				1.00241
				1.01434
				1.00939
				1.02043
				1.01599
				1.02612
				1.02219
				1.03139
				1.02796
				1.03619
				1.03325
				1.04052
				1.03805
				1.04434
				1.04234
				1.04765
				1.04609
				1.05043
				1.04929
				1.05267
				1.05193
				1.05435
				1.05399
				1.05548
				1.05547
				1.05604
				1.05636
				1.05604
				1.05665
				1.05548
				1.05636
				1.05435
				1.05547
				1.05267
				1.05399
				1.05043
				1.05193
				1.04765
				1.04929
				1.04434
				1.04609
				1.04052
				1.04234
				1.03619
				1.03805
				1.03139
				1.03325
				1.02612
				1.02796
				1.02043
				1.02219
				1.01434
				1.01599
				1.00787
				1.00939
				1.00108
				1.00241
				0.994005
				0.995109
				0.986689
				0.98753
				0.979189
				0.979724
				0.971564
				0.971753
				0.963881
				0.963681
				0.956214
				0.955583
				0.948646
				0.947539
				0.941266
				0.939641
				0.93417
				0.931987
				0.927464
				0.924686
				0.921258
				0.917851
				0.915663
				0.911603
				0.910794
				0.906066
				0.906755
				0.901358
				0.903639
				0.897589
				0.901519
				0.894852
				0.900442
				0.893214
				0.900424
				0.89271
				0.901449
				0.893338
				0.903466
				0.89506
				0.906401
				0.897805
				0.910156
				0.901474
				0.914621
				0.905952
				0.919677
				0.911112
				0.925205
				0.916822
				0.931085
				0.922954
				0.937206
				0.929385
				0.943461
				0.935998
				0.949754
				0.942684
				0.955995
				0.949347
				0.962102
				0.955897
				0.968002
				0.962254
				0.973629
				0.968345
				0.978922
				0.974106
				0.983827
				0.97948
				0.988298
				0.984418
				0.992292
				0.988879
				0.995779
				0.992828
				0.998735
				0.996245
				1.00115
				0.999116
				1.00304
				1.00145
				1.00441
				1.00325
				1.00532
				1.00456
				1.00582
				1.00543
				1.00597
				1.0059
				1.00586
				1.00604
				1.00561
				1.00593
				1.00533
				1.0057
				1.00516
				1.00548
				1.00514
				1.00489
				1.00538
				1.00503
				1.00577
				1.00539
				1.00613
				1.00584
				1.00631
				1.00624
				1.00621
				1.00643
				1.00575
				1.00632
				1.00488
				1.00582
				1.00356
				1.00488
				1.00177
				1.00347
				0.999493
				1.00158
				0.996739
				0.999209
				0.993521
				0.99637
				0.989864
				0.993092
				0.985798
				0.989406
				0.981359
				0.985349
				0.976588
				0.980961
				0.971531
				0.976288
				0.966239
				0.971375
				0.960769
				0.966277
				0.955186
				0.961052
				0.949562
				0.955764
				0.943974
				0.950485
				0.938512
				0.945294
				0.933267
				0.940276
				0.928342
				0.935523
				0.923842
				0.93113
				0.919874
				0.927196
				0.916544
				0.923821
				0.913949
				0.921096
				0.912176
				0.919105
				0.91129
				0.917918
				0.911334
				0.917583
				0.912324
				0.918126
				0.914247
				0.919547
				0.91706
				0.921821
				0.9207
				0.9249
				0.925086
				0.928716
				0.930124
				0.933189
				0.935713
				0.93823
				0.941754
				0.943745
				0.948145
				0.94964
				0.954793
				0.955824
				0.961609
				0.962212
				0.968511
				0.968722
				0.975424
				0.97528
				0.982281
				0.98182
				0.989021
				0.98828
				0.995591
				0.994604
				1.00194
				1.00074
				1.00803
				1.00666
				1.01382
				1.0123
				1.01927
				1.01765
				1.02436
				1.02266
				1.02906
				1.02731
				1.03334
				1.03159
				1.0372
				1.03546
				1.04061
				1.03892
				1.04355
				1.04194
				1.04603
				1.04452
				1.04802
				1.04664
				1.04951
				1.0483
				1.05051
				1.04949
				1.05102
				1.0502
				1.05102
				1.05044
				1.05051
				1.0502
				1.04951
				1.04949
				1.04802
				1.0483
				1.04603
				1.04664
				1.04355
				1.04452
				1.04061
				1.04194
				1.0372
				1.03892
				1.03334
				1.03546
				1.02906
				1.03159
				1.02436
				1.02731
				1.01927
				1.02266
				1.01381
				1.01765
				1.00803
				1.0123
				1.00194
				1.00666
				0.995591
				1.00074
				0.989021
				0.994604
				0.982281
				0.98828
				0.975424
				0.98182
				0.968511
				0.975281
				0.961609
				0.968722
				0.954793
				0.962212
				0.948145
				0.955824
				0.941754
				0.94964
				0.935713
				0.943745
				0.930124
				0.93823
				0.925086
				0.933189
				0.9207
				0.928716
				0.91706
				0.9249
				0.914247
				0.921821
				0.912324
				0.919547
				0.911334
				0.918126
				0.91129
				0.917583
				0.912176
				0.917918
				0.913949
				0.919105
				0.916544
				0.921096
				0.919874
				0.923821
				0.923842
				0.927196
				0.928342
				0.93113
				0.933267
				0.935523
				0.938512
				0.940276
				0.943975
				0.945294
				0.949562
				0.950485
				0.955186
				0.955764
				0.960769
				0.961052
				0.966239
				0.966277
				0.971531
				0.971375
				0.976588
				0.976288
				0.981359
				0.980961
				0.985798
				0.985349
				0.989864
				0.989406
				0.993521
				0.993092
				0.996738
				0.99637
				0.999493
				0.999209
				1.00177
				1.00158
				1.00356
				1.00347
				1.00488
				1.00488
				1.00575
				1.00582
				1.00621
				1.00632
				1.00631
				1.00643
				1.00613
				1.00624
				1.00577
				1.00584
				1.00538
				1.00539
				1.00514
				1.00503
				1.00431
				1.00443
				1.00467
				1.00461
				1.00526
				1.00507
				1.00591
				1.00564
				1.00642
				1.00613
				1.00666
				1.00638
				1.00653
				1.0063
				1.00598
				1.00583
				1.00498
				1.00493
				1.00354
				1.00359
				1.00165
				1.00182
				0.999361
				0.999622
				0.996688
				0.99702
				0.993666
				0.994039
				0.990331
				0.99071
				0.986718
				0.987065
				0.982861
				0.983139
				0.978801
				0.978968
				0.974578
				0.974594
				0.970239
				0.970064
				0.965836
				0.965426
				0.961424
				0.960739
				0.957067
				0.956066
				0.952834
				0.951476
				0.948796
				0.947044
				0.945032
				0.942853
				0.941622
				0.938985
				0.938646
				0.935529
				0.936181
				0.932571
				0.934297
				0.930192
				0.933055
				0.928464
				0.9325
				0.927447
				0.932662
				0.927184
				0.93355
				0.927696
				0.935154
				0.928983
				0.937444
				0.931023
				0.940375
				0.933775
				0.943887
				0.937181
				0.947911
				0.94117
				0.952373
				0.945663
				0.957195
				0.95058
				0.962301
				0.955835
				0.967615
				0.961348
				0.973068
				0.967042
				0.978594
				0.972845
				0.984131
				0.978688
				0.989626
				0.984513
				0.995027
				0.990263
				1.00029
				0.995889
				1.00538
				1.00135
				1.01026
				1.0066
				1.01489
				1.01161
				1.01925
				1.01635
				1.02332
				1.02079
				1.02707
				1.02491
				1.0305
				1.02869
				1.03358
				1.03211
				1.03629
				1.03517
				1.03864
				1.03783
				1.04061
				1.04011
				1.04219
				1.04198
				1.04339
				1.04344
				1.04418
				1.04448
				1.04458
				1.04511
				1.04458
				1.04532
				1.04418
				1.04511
				1.04339
				1.04448
				1.04219
				1.04344
				1.04061
				1.04198
				1.03864
				1.04011
				1.03629
				1.03783
				1.03358
				1.03517
				1.0305
				1.03211
				1.02707
				1.02869
				1.02332
				1.02491
				1.01925
				1.02079
				1.01489
				1.01635
				1.01025
				1.01161
				1.00538
				1.0066
				1.00029
				1.00135
				0.995027
				0.995889
				0.989626
				0.990263
				0.984131
				0.984513
				0.978594
				0.978688
				0.973068
				0.972845
				0.967615
				0.967042
				0.962301
				0.961348
				0.957195
				0.955835
				0.952373
				0.95058
				0.947911
				0.945664
				0.943887
				0.94117
				0.940375
				0.937181
				0.937444
				0.933775
				0.935154
				0.931023
				0.93355
				0.928983
				0.932662
				0.927696
				0.9325
				0.927184
				0.933055
				0.927447
				0.934297
				0.928464
				0.936181
				0.930192
				0.938646
				0.932571
				0.941622
				0.93553
				0.945032
				0.938985
				0.948796
				0.942853
				0.952834
				0.947044
				0.957067
				0.951476
				0.961424
				0.956066
				0.965836
				0.960739
				0.970239
				0.965426
				0.974578
				0.970064
				0.978801
				0.974594
				0.982861
				0.978968
				0.986718
				0.983139
				0.990331
				0.987065
				0.993666
				0.99071
				0.996688
				0.994039
				0.999361
				0.99702
				1.00165
				0.999622
				1.00354
				1.00182
				1.00498
				1.00359
				1.00598
				1.00493
				1.00653
				1.00583
				1.00666
				1.0063
				1.00642
				1.00638
				1.00591
				1.00613
				1.00526
				1.00564
				1.00467
				1.00507
				1.00431
				1.00461
				1.00344
				1.00327
				1.00388
				1.0035
				1.0046
				1.00414
				1.00537
				1.00499
				1.00596
				1.00581
				1.00624
				1.00639
				1.00614
				1.00661
				1.00563
				1.00642
				1.0047
				1.00579
				1.00336
				1.00473
				1.00164
				1.00327
				0.999556
				1.00145
				0.997147
				0.999289
				0.99444
				0.996832
				0.991465
				0.994109
				0.988252
				0.991151
				0.984833
				0.987989
				0.98124
				0.984653
				0.977511
				0.981178
				0.973686
				0.9776
				0.969811
				0.97396
				0.965934
				0.970302
				0.962112
				0.966677
				0.958405
				0.963139
				0.954876
				0.959745
				0.951593
				0.956558
				0.948627
				0.953641
				0.946045
				0.95106
				0.943915
				0.948876
				0.942298
				0.947148
				0.941244
				0.945928
				0.940792
				0.945256
				0.940967
				0.945161
				0.941777
				0.945658
				0.943212
				0.946745
				0.945247
				0.948408
				0.947843
				0.950615
				0.950949
				0.953325
				0.954504
				0.956486
				0.958445
				0.960041
				0.962703
				0.963928
				0.967211
				0.968083
				0.971904
				0.972444
				0.976718
				0.976952
				0.981594
				0.981547
				0.98648
				0.986178
				0.991326
				0.990795
				0.996088
				0.995354
				1.00073
				0.999815
				1.00521
				1.00414
				1.00949
				1.00831
				1.01357
				1.01228
				1.0174
				1.01603
				1.02097
				1.01955
				1.02426
				1.02281
				1.02726
				1.0258
				1.02996
				1.0285
				1.03234
				1.03091
				1.03439
				1.03302
				1.03611
				1.03481
				1.0375
				1.03628
				1.03854
				1.03744
				1.03923
				1.03826
				1.03958
				1.03876
				1.03958
				1.03892
				1.03923
				1.03876
				1.03854
				1.03826
				1.0375
				1.03744
				1.03611
				1.03628
				1.03439
				1.03481
				1.03234
				1.03302
				1.02996
				1.03091
				1.02726
				1.0285
				1.02426
				1.0258
				1.02097
				1.02281
				1.0174
				1.01955
				1.01357
				1.01603
				1.00949
				1.01228
				1.00521
				1.00831
				1.00073
				1.00414
				0.996088
				0.999815
				0.991326
				0.995354
				0.98648
				0.990795
				0.981594
				0.986178
				0.976718
				0.981547
				0.971904
				0.976951
				0.967211
				0.972444
				0.962703
				0.968083
				0.958445
				0.963928
				0.954504
				0.960041
				0.950949
				0.956486
				0.947843
				0.953325
				0.945247
				0.950615
				0.943212
				0.948408
				0.941777
				0.946745
				0.940967
				0.945658
				0.940792
				0.945161
				0.941244
				0.945256
				0.942298
				0.945928
				0.943915
				0.947148
				0.946045
				0.948876
				0.948627
				0.95106
				0.951593
				0.953641
				0.954876
				0.956558
				0.958405
				0.959745
				0.962112
				0.963139
				0.965934
				0.966677
				0.969811
				0.970302
				0.973686
				0.97396
				0.977511
				0.9776
				0.98124
				0.981178
				0.984833
				0.984653
				0.988252
				0.987989
				0.991465
				0.991151
				0.99444
				0.994109
				0.997147
				0.996832
				0.999556
				0.999289
				1.00164
				1.00145
				1.00336
				1.00327
				1.0047
				1.00473
				1.00563
				1.00579
				1.00614
				1.00642
				1.00624
				1.00661
				1.00596
				1.00639
				1.00537
				1.00581
				1.0046
				1.00499
				1.00388
				1.00414
				1.00344
				1.0035
				1.00204
				1.00203
				1.00261
				1.00232
				1.00357
				1.00308
				1.00465
				1.00407
				1.00556
				1.00499
				1.00613
				1.00564
				1.00628
				1.0059
				1.00599
				1.00575
				1.00529
				1.00519
				1.00421
				1.00423
				1.00279
				1.00292
				1.00107
				1.00129
				0.999096
				0.999367
				0.996892
				0.997186
				0.994488
				0.994775
				0.991911
				0.992163
				0.989187
				0.989376
				0.986344
				0.986441
				0.983411
				0.983391
				0.980421
				0.980255
				0.97741
				0.977072
				0.974416
				0.973879
				0.971482
				0.970721
				0.968655
				0.967645
				0.965983
				0.964701
				0.963517
				0.961944
				0.961308
				0.959427
				0.959406
				0.957208
				0.95786
				0.955337
				0.956711
				0.953867
				0.955995
				0.95284
				0.955739
				0.952289
				0.95596
				0.952239
				0.956662
				0.952702