<VTKFile type="UnstructuredGrid" version="0.1" byte_order="LittleEndian">
<UnstructuredGrid>
	<Piece NumberOfPoints="4224" NumberOfCells="8192">
		<CellData Scalars="density" Vectors="velocity">
			<DataArray type="Float64" Name="density" Format="ascii">
				1.06657
				1.06574
				1.06583
				1.06529
				1.06443
				1.06418
				1.06211
				1.06244
				1.05859
				1.05972
				1.05375
				1.0558
				1.04753
				1.0506
				1.03995
				1.04409
				1.03109
				1.0363
				1.02102
				1.0273
				1.00985
				1.01719
				0.997699
				1.00607
				0.984663
				0.99404
				0.970856
				0.981206
				0.95637
				0.967668
				0.941319
				0.953519
				0.925782
				0.938863
				0.909886
				0.923786
				0.893721
				0.908404
				0.877419
				0.892815
				0.861121
				0.877149
				0.84492
				0.861534
				0.828985
				0.846087
				0.813506
				0.830979
				0.798661
				0.816395
				0.784681
				0.802523
				0.77175
				0.789589
				0.760199
				0.777821
				0.75037
				0.767548
				0.742581
				0.759094
				0.737057
				0.75274
				0.734258
				0.748784
				0.734184
				0.74749
				0.736988
				0.748888
				0.74241
				0.752948
				0.75016
				0.75939
				0.759967
				0.767934
				0.771524
				0.778287
				0.784429
				0.790129
				0.798431
				0.803131
				0.813285
				0.817062
				0.828782
				0.831698
				0.844737
				0.846846
				0.860925
				0.862325
				0.877227
				0.877962
				0.893521
				0.893631
				0.909631
				0.909215
				0.925506
				0.924573
				0.940971
				0.939622
				0.95596
				0.95424
				0.97037
				0.968345
				0.984122
				0.98185
				0.997134
				0.994677
				1.00932
				1.00675
				1.02062
				1.018
				1.03097
				1.02837
				1.04032
				1.0378
				1.04861
				1.04625
				1.0558
				1.05365
				1.06185
				1.05999
				1.06673
				1.06521
				1.07041
				1.06931
				1.07288
				1.07225
				1.07411
				1.07402
				1.07411
				1.07461
				1.07288
				1.07402
				1.07041
				1.07225
				1.06673
				1.06931
				1.06185
				1.06522
				1.0558
				1.05999
				1.04862
				1.05366
				1.04033
				1.04625
				1.03098
				1.03781
				1.02063
				1.02838
				1.00933
				1.01801
				0.997142
				1.00676
				0.984131
				0.994685
				0.97038
				0.981859
				0.955971
				0.968355
				0.940974
				0.954247
				0.925521
				0.939635
				0.909653
				0.924589
				0.893531
				0.909227
				0.877242
				0.893646
				0.86094
				0.877976
				0.844752
				0.86234
				0.8288
				0.846861
				0.813315
				0.831723
				0.798444
				0.817079
				0.784451
				0.803151
				0.771547
				0.790149
				0.759991
				0.77831
				0.750186
				0.767958
				0.742437
				0.759415
				0.737015
				0.752974
				0.734212
				0.748915
				0.734286
				0.747517
				0.737084
				0.748811
				0.742607
				0.752766
				0.750395
				0.759119
				0.760223
				0.767572
				0.771774
				0.777845
				0.784703
				0.789611
				0.798682
				0.802545
				0.813526
				0.816415
				0.829004
				0.830998
				0.844938
				0.846105
				0.861139
				0.861552
				0.877436
				0.877165
				0.893737
				0.892831
				0.909901
				0.908418
				0.925788
				0.923795
				0.941336
				0.938877
				0.956382
				0.953531
				0.970867
				0.967679
				0.984673
				0.981216
				0.997708
				0.99405
				1.00986
				1.00608
				1.02102
				1.0172
				1.03109
				1.02731
				1.03996
				1.0363
				1.04753
				1.04409
				1.05375
				1.0506
				1.05859
				1.0558
				1.06211
				1.05972
				1.06443
				1.06244
				1.06583
				1.06418
				1.06657
				1.06529
				1.06502
				1.06702
				1.06419
				1.06671
				1.06294
				1.06583
				1.06104
				1.0642
				1.05814
				1.06157
				1.05411
				1.0578
				1.04891
				1.05283
				1.04254
				1.04666
				1.03505
				1.03934
				1.02652
				1.03093
				1.01704
				1.02151
				1.0067
				1.01118
				0.99558
				1.00001
				0.983775
				0.9881
				0.971367
				0.975524
				0.958437
				0.962371
				0.945078
				0.948726
				0.931371
				0.93468
				0.917418
				0.920324
				0.903318
				0.905763
				0.889187
				0.891107
				0.875143
				0.876472
				0.861322
				0.86199
				0.84788
				0.847808
				0.83499
				0.834097
				0.822844
				0.82104
				0.811663
				0.808847
				0.801694
				0.797756
				0.793223
				0.788052
				0.786534
				0.780034
				0.781894
				0.77398
				0.779539
				0.770183
				0.779595
				0.768837
				0.782064
				0.770027
				0.786807
				0.773679
				0.793587
				0.779579
				0.802134
				0.787465
				0.812164
				0.79705
				0.823393
				0.808028
				0.83557
				0.820117
				0.848479
				0.833081
				0.861927
				0.846709
				0.87574
				0.860812
				0.889766
				0.875217
				0.903867
				0.889777
				0.917923
				0.904363
				0.931827
				0.918852
				0.945473
				0.933139
				0.958774
				0.947117
				0.971639
				0.960697
				0.983993
				0.973792
				0.995764
				0.986324
				1.00688
				0.998221
				1.01729
				1.00941
				1.02694
				1.01984
				1.03576
				1.02944
				1.04372
				1.03818
				1.05077
				1.04599
				1.05688
				1.05285
				1.06202
				1.05871
				1.06617
				1.06354
				1.06929
				1.06733
				1.07138
				1.07005
				1.07243
				1.07168
				1.07243
				1.07223
				1.07139
				1.07168
				1.06929
				1.07005
				1.06617
				1.06733
				1.06203
				1.06354
				1.05688
				1.05871
				1.05077
				1.05285
				1.04372
				1.046
				1.03576
				1.03818
				1.02694
				1.02945
				1.0173
				1.01985
				1.00689
				1.00942
				0.995772
				0.998229
				0.984002
				0.986333
				0.971647
				0.973801
				0.958784
				0.960706
				0.945485
				0.947127
				0.931838
				0.933152
				0.917935
				0.918866
				0.903879
				0.904376
				0.889779
				0.889791
				0.875756
				0.875232
				0.861944
				0.860827
				0.848497
				0.846727
				0.835588
				0.8331
				0.823412
				0.820136
				0.812183
				0.808046
				0.802155
				0.797072
				0.793609
				0.787487
				0.78683
				0.779602
				0.782088
				0.773703
				0.77962
				0.770052
				0.779563
				0.768862
				0.781918
				0.770208
				0.786558
				0.774005
				0.793245
				0.780058
				0.801716
				0.788075
				0.811683
				0.797778
				0.822865
				0.808868
				0.835008
				0.82106
				0.847898
				0.834115
				0.861339
				0.847826
				0.87516
				0.862007
				0.889201
				0.876489
				0.903332
				0.891121
				0.917431
				0.905777
				0.931383
				0.920337
				0.945089
				0.934691
				0.958448
				0.948737
				0.971377
				0.962383
				0.983785
				0.975535
				0.995589
				0.988109
				1.00671
				1.00002
				1.01705
				1.01119
				1.02653
				1.02152
				1.03505
				1.03093
				1.04254
				1.03934
				1.04891
				1.04667
				1.05411
				1.05283
				1.05814
				1.0578
				1.06104
				1.06157
				1.06295
				1.0642
				1.06419
				1.06583
				1.06502
				1.06671
				1.06561
				1.06377
				1.06507
				1.06327
				1.06389
				1.06224
				1.06182
				1.06083
				1.05877
				1.05862
				1.0547
				1.05542
				1.04962
				1.05119
				1.04354
				1.04593
				1.03653
				1.03968
				1.02863
				1.03253
				1.0199
				1.02452
				1.01042
				1.01575
				1.00023
				1.00627
				0.989408
				0.996154
				0.978019
				0.985464
				0.966134
				0.974268
				0.953831
				0.962637
				0.941189
				0.950648
				0.928299
				0.938381
				0.915255
				0.925923
				0.902163
				0.913372
				0.889137
				0.900835
				0.876307
				0.88843
				0.863818
				0.876289
				0.851832
				0.864563
				0.840531
				0.853419
				0.830122
				0.843047
				0.82084
				0.833659
				0.812936
				0.825488
				0.806674
				0.818784
				0.802297
				0.813784
				0.800011
				0.810698
				0.799932
				0.80968
				0.802064
				0.81078
				0.80629
				0.813942
				0.812413
				0.819013
				0.820189
				0.825781
				0.82936
				0.834005
				0.839666
				0.843439
				0.850878
				0.853847
				0.862787
				0.86502
				0.875211
				0.876766
				0.887983
				0.888921
				0.900959
				0.901335
				0.91401
				0.913875
				0.927021
				0.926424
				0.939889
				0.938877
				0.952515
				0.951138
				0.964817
				0.96312
				0.976712
				0.974744
				0.98813
				0.985937
				0.999002
				0.996634
				1.00927
				1.00677
				1.01887
				1.0163
				1.02777
				1.02517
				1.0359
				1.03332
				1.04323
				1.04073
				1.04973
				1.04735
				1.05536
				1.05315
				1.06009
				1.05811
				1.06391
				1.0622
				1.06678
				1.0654
				1.06871
				1.0677
				1.06967
				1.06908
				1.06967
				1.06954
				1.06871
				1.06908
				1.06679
				1.0677
				1.06391
				1.0654
				1.0601
				1.0622
				1.05536
				1.05812
				1.04974
				1.05316
				1.04324
				1.04736
				1.03591
				1.04073
				1.02777
				1.03333
				1.01888
				1.02517
				1.00928
				1.01631
				0.999009
				1.00678
				0.988137
				0.996641
				0.97672
				0.985945
				0.964826
				0.974752
				0.952525
				0.963129
				0.9399
				0.951148
				0.927033
				0.938887
				0.914023
				0.926435
				0.900972
				0.913887
				0.887997
				0.901348
				0.875226
				0.888935
				0.862804
				0.876782
				0.850895
				0.865035
				0.839684
				0.853864
				0.829378
				0.843456
				0.820209
				0.834024
				0.812434
				0.825801
				0.806312
				0.819033
				0.802086
				0.813963
				0.799955
				0.810801
				0.800034
				0.809702
				0.802319
				0.81072
				0.806695
				0.813805
				0.812957
				0.818804
				0.82086
				0.825508
				0.830142
				0.833678
				0.84055
				0.843066
				0.851849
				0.853436
				0.863835
				0.864579
				0.876322
				0.876305
				0.889152
				0.888445
				0.902177
				0.900849
				0.915268
				0.913385
				0.928311
				0.925935
				0.941201
				0.938392
				0.953841
				0.950658
				0.966144
				0.962647
				0.978029
				0.974277
				0.989417
				0.985472
				1.00024
				0.996162
				1.01042
				1.00628
				1.01991
				1.01576
				1.02863
				1.02453
				1.03653
				1.03253
				1.04355
				1.03969
				1.04962
				1.04593
				1.05471
				1.05119
				1.05877
				1.05542
				1.06182
				1.05862
				1.06389
				1.06083
				1.06507
				1.06224
				1.06561
				1.06327
				1.06126
				1.06326
				1.06042
				1.06303
				1.0593
				1.06227
				1.0576
				1.0607
				1.05501
				1.05822
				1.05152
				1.05487
				1.04715
				1.05067
				1.04196
				1.04566
				1.03601
				1.03985
				1.02934
				1.0333
				1.02202
				1.02603
				1.01407
				1.01809
				1.00554
				1.0095
				0.996482
				1.00032
				0.986939
				0.990598
				0.976968
				0.980392
				0.966631
				0.969766
				0.955999
				0.958789
				0.945146
				0.947538
				0.934157
				0.936095
				0.923124
				0.924553
				0.91215
				0.913012
				0.901353
				0.901585
				0.89086
				0.890397
				0.880817
				0.879589
				0.871384
				0.869318
				0.862742
				0.859761
				0.855083
				0.851111
				0.848615
				0.843583
				0.843542
				0.837396
				0.840047
				0.832764
				0.838277
				0.82987
				0.83831
				0.828845
				0.840146
				0.829734
				0.843703
				0.832494
				0.848834
				0.836998
				0.855353
				0.843066
				0.863056
				0.850487
				0.871737
				0.859039
				0.881201
				0.868512
				0.89127
				0.87871
				0.901784
				0.889455
				0.9126
				0.90059
				0.923589
				0.911976
				0.934639
				0.923486
				0.945646
				0.935008
				0.956522
				0.946443
				0.967183
				0.957701
				0.977556
				0.968701
				0.987574
				0.979369
				0.997175
				0.989638
				1.00631
				0.999446
				1.01492
				1.00874
				1.02296
				1.01747
				1.0304
				1.02558
				1.03719
				1.03305
				1.04331
				1.03982
				1.04873
				1.04588
				1.05341
				1.05118
				1.05735
				1.05571
				1.06052
				1.05944
				1.06291
				1.06236
				1.06451
				1.06446
				1.06531
				1.06572
				1.06531
				1.06614
				1.06451
				1.06572
				1.06291
				1.06446
				1.06052
				1.06237
				1.05735
				1.05945
				1.05342
				1.05571
				1.04873
				1.05118
				1.04331
				1.04588
				1.0372
				1.03983
				1.0304
				1.03305
				1.02296
				1.02559
				1.01492
				1.01747
				1.00631
				1.00875
				0.997182
				0.999453
				0.987581
				0.989645
				0.977564
				0.979377
				0.967192
				0.96871
				0.956531
				0.95771
				0.945657
				0.946453
				0.934649
				0.935019
				0.9236
				0.923497
				0.912612
				0.911988
				0.901797
				0.900604
				0.891284
				0.889469
				0.881215
				0.878724
				0.871753
				0.868528
				0.863073
				0.859056
				0.85537
				0.850504
				0.848851
				0.843085
				0.843721
				0.837017
				0.840165
				0.832513
				0.838329
				0.829754
				0.838297
				0.828865
				0.840066
				0.82989
				0.84356
				0.832783
				0.848633
				0.837415
				0.855101
				0.843601
				0.862758
				0.851129
				0.8714
				0.859777
				0.880832
				0.869334
				0.890874
				0.879604
				0.901366
				0.890412
				0.912163
				0.901599
				0.923135
				0.913025
				0.934168
				0.924565
				0.945157
				0.936106
				0.956009
				0.947548
				0.966641
				0.958799
				0.976976
				0.969775
				0.986947
				0.980401
				0.996489
				0.990606
				1.00555
				1.00033
				1.01408
				1.00951
				1.02202
				1.01809
				1.02935
				1.02604
				1.03601
				1.03331
				1.04196
				1.03986
				1.04715
				1.04566
				1.05152
				1.05068
				1.05501
				1.05488
				1.0576
				1.05822
				1.0593
				1.0607
				1.06042
				1.06227
				1.06126
				1.06303
				1.05963
				1.05789
				1.05927
				1.05741
				1.05822
				1.05646
				1.05626
				1.05517
				1.05352
				1.05312
				1.05006
				1.05024
				1.04594
				1.04663
				1.04118
				1.04235
				1.03579
				1.03746
				1.02978
				1.03198
				1.02319
				1.02594
				1.01603
				1.01935
				1.00833
				1.01226
				1.00013
				1.00467
				0.991474
				0.996641
				0.982416
				0.988202
				0.973012
				0.979406
				0.963328
				0.970312
				0.953433
				0.960985
				0.943407
				0.951497
				0.933336
				0.941927
				0.923316
				0.932365
				0.913456
				0.92291
				0.903875
				0.913671
				0.894708
				0.904773
				0.886103
				0.896352
				0.878222
				0.888555
				0.871242
				0.881545
				0.865345
				0.875491
				0.86071
				0.870561
				0.857496
				0.866913
				0.855828
				0.864676
				0.855771
				0.863939
				0.857328
				0.86473
				0.860434
				0.867019
				0.864967
				0.870718
				0.87077
				0.875696
				0.877665
				0.881794
				0.885471
				0.888843
				0.894013
				0.896675
				0.903127
				0.905127
				0.912666
				0.914052
				0.922495
				0.923314
				0.932493
				0.932793
				0.942555
				0.94238
				0.952585
				0.951977
				0.962497
				0.961498
				0.972214
				0.970864
				0.981666
				0.980008
				0.990793
				0.988866
				0.999538
				0.997382
				1.00785
				1.00551
				1.01569
				1.01319
				1.023
				1.0204
				1.02976
				1.0271
				1.03594
				1.03325
				1.0415
				1.03882
				1.04641
				1.0438
				1.05067
				1.04815
				1.05424
				1.05187
				1.05712
				1.05493
				1.05928
				1.05732
				1.06073
				1.05904
				1.06146
				1.06007
				1.06146
				1.06042
				1.06073
				1.06007
				1.05928
				1.05904
				1.05712
				1.05733
				1.05424
				1.05493
				1.05067
				1.05187
				1.04642
				1.04816
				1.0415
				1.0438
				1.03594
				1.03883
				1.02977
				1.03325
				1.02301
				1.0271
				1.01569
				1.02041
				1.00786
				1.0132
				0.999544
				1.00551
				0.9908
				0.997388
				0.981674
				0.988873
				0.972221
				0.980015
				0.962505
				0.970872
				0.952594
				0.961506
				0.942565
				0.951986
				0.932504
				0.94239
				0.922506
				0.932804
				0.912678
				0.923326
				0.90314
				0.914064
				0.894026
				0.905139
				0.885485
				0.896688
				0.87768
				0.888857
				0.870785
				0.881808
				0.864983
				0.875711
				0.860451
				0.870734
				0.857346
				0.867036
				0.855788
				0.864747
				0.855845
				0.863956
				0.857513
				0.864693
				0.860727
				0.866929
				0.865362
				0.870577
				0.871258
				0.875506
				0.878237
				0.88156
				0.886117
				0.888569
				0.894722
				0.896365
				0.903888
				0.904786
				0.913468
				0.913684
				0.923328
				0.922921
				0.933347
				0.932376
				0.943417
				0.941937
				0.953443
				0.951507
				0.963337
				0.960994
				0.97302
				0.970321
				0.982424
				0.979414
				0.991482
				0.988209
				1.00014
				0.996648
				1.00834
				1.00468
				1.01603
				1.01226
				1.0232
				1.01936
				1.02979
				1.02594
				1.03579
				1.03198
				1.04118
				1.03746
				1.04594
				1.04236
				1.05007
				1.04664
				1.05352
				1.05024
				1.05626
				1.05312
				1.05822
				1.05518
				1.05927
				1.05646
				1.05963
				1.05741
				1.05321
				1.05505
				1.05249
				1.05497
				1.05152
				1.05445
				1.04998
				1.05306
				1.04768
				1.05087
				1.04475
				1.04807
				1.04127
				1.04472
				1.03729
				1.04085
				1.03284
				1.03645
				1.02791
				1.03154
				1.02251
				1.02612
				1.01666
				1.0202
				1.01038
				1.01381
				1.00369
				1.00697
				0.996633
				0.999713
				0.989241
				0.992089
				0.981563
				0.984139
				0.973653
				0.975915
				0.965573
				0.967477
				0.957388
				0.95889
				0.949174
				0.950227
				0.941014
				0.94157
				0.933002
				0.93301
				0.92524
				0.924648
				0.917842
				0.916598
				0.910931
				0.908983
				0.904641
				0.901939
				0.899108
				0.89561
				0.894472
				0.890145
				0.890862
				0.885691
				0.888392
				0.882383
				0.887146
				0.880332
				0.887168
				0.879611
				0.888457
				0.880246
				0.890969
				0.882212
				0.89462
				0.885438
				0.899296
				0.889816
				0.904866
				0.895213
				0.911192
				0.901481
				0.918135
				0.908474
				0.925565
				0.916047
				0.933356
				0.924065
				0.941397
				0.932404
				0.949587
				0.940953
				0.957833
				0.949609
				0.966054
				0.958283
				0.974176
				0.966892
				0.982135
				0.975365
				0.989871
				0.983638
				0.997334
				0.991651
				1.00448
				0.999353
				1.01126
				1.0067
				1.01764
				1.01365
				1.02359
				1.02016
				1.02909
				1.02621
				1.0341
				1.03176
				1.03861
				1.03679
				1.04259
				1.04128
				1.04603
				1.0452
				1.04892
				1.04855
				1.05124
				1.05131
				1.05299
				1.05347
				1.05416
				1.05501
				1.05475
				1.05594
				1.05475
				1.05625
				1.05416
				1.05594
				1.05299
				1.05501
				1.05124
				1.05347
				1.04892
				1.05131
				1.04603
				1.04856
				1.04259
				1.04521
				1.03861
				1.04128
				1.0341
				1.03679
				1.02909
				1.03176
				1.0236
				1.02621
				1.01765
				1.02017
				1.01126
				1.01365
				1.00448
				1.0067
				0.99734
				0.999359
				0.989878
				0.991657
				0.982142
				0.983644
				0.974183
				0.975373
				0.966062
				0.9669
				0.957842
				0.958291
				0.949596
				0.949618
				0.941407
				0.940963
				0.933366
				0.932415
				0.925575
				0.924076
				0.918147
				0.916058
				0.911204
				0.908486
				0.904879
				0.901494
				0.899309
				0.895226
				0.894633
				0.88983
				0.890983
				0.885452
				0.888471
				0.882227
				0.887182
				0.880261
				0.88716
				0.879626
				0.888407
				0.880347
				0.890876
				0.882398
				0.894486
				0.885706
				0.899122
				0.890159
				0.904654
				0.895624
				0.910943
				0.901953
				0.917853
				0.908996
				0.925251
				0.91661
				0.933013
				0.92466
				0.941024
				0.933021
				0.949183
				0.94158
				0.957397
				0.950236
				0.965581
				0.958899
				0.973661
				0.967485
				0.98157
				0.975923
				0.989247
				0.984146
				0.996639
				0.992095
				1.0037
				0.999719
				1.01039
				1.00697
				1.01667
				1.01381
				1.02251
				1.0202
				1.02791
				1.02612
				1.03284
				1.03154
				1.0373
				1.03645
				1.04128
				1.04085
				1.04475
				1.04473
				1.04768
				1.04807
				1.04998
				1.05087
				1.05153
				1.05306
				1.05249
				1.05445
				1.05321
				1.05497
				1.04968
				1.04802
				1.0496
				1.04764
				1.04882
				1.04692
				1.04717
				1.04585
				1.04495
				1.04412
				1.04229
				1.0418
				1.03919
				1.03903
				1.03564
				1.03585
				1.03166
				1.03227
				1.02725
				1.02829
				1.0224
				1.02391
				1.01715
				1.01913
				1.01151
				1.01398
				1.0055
				1.00847
				0.999159
				1.00263
				0.992521
				0.996492
				0.985628
				0.99009
				0.978526
				0.983468
				0.971269
				0.976675
				0.963918
				0.969767
				0.956541
				0.962806
				0.949214
				0.95586
				0.942021
				0.949007
				0.935056
				0.942332
				0.928423
				0.93593
				0.922231
				0.929901
				0.9166
				0.924353
				0.911649
				0.919399
				0.9075
				0.915151
				0.904263
				0.911716
				0.902036
				0.90919
				0.900888
				0.907648
				0.900856
				0.90714
				0.901942
				0.907683
				0.904109
				0.909259
				0.907288
				0.91182
				0.911384
				0.915288
				0.916288
				0.91957
				0.921881
				0.924557
				0.928041
				0.930137
				0.934651
				0.936198
				0.941601
				0.942632
				0.948789
				0.949338
				0.95612
				0.956223
				0.963512
				0.963202
				0.970886
				0.9702
				0.978177
				0.977149
				0.985323
				0.983986
				0.992271
				0.990658
				0.998973
				0.997118
				1.00539
				1.00332
				1.01147
				1.00923
				1.0172
				1.01482
				1.02254
				1.02005
				1.02747
				1.02489
				1.03196
				1.02934
				1.036
				1.03337
				1.03957
				1.03695
				1.04265
				1.04009
				1.04523
				1.04276
				1.04731
				1.04496
				1.04888
				1.04667
				1.04992
				1.0479
				1.05045
				1.04864
				1.05045
				1.04889
				1.04992
				1.04864
				1.04888
				1.0479
				1.04731
				1.04667
				1.04523
				1.04496
				1.04265
				1.04276
				1.03957
				1.04009
				1.036
				1.03695
				1.03197
				1.03337
				1.02747
				1.02934
				1.02255
				1.0249
				1.01721
				1.02005
				1.01148
				1.01482
				1.00539
				1.00924
				0.998978
				1.00333
				0.992277
				0.997123
				0.98533
				0.990664
				0.978184
				0.983992
				0.970893
				0.977155
				0.963519
				0.970207
				0.956129
				0.96321
				0.948798
				0.956231
				0.941611
				0.949346
				0.934661
				0.942641
				0.928051
				0.936207
				0.921892
				0.930147
				0.9163
				0.924568
				0.911396
				0.919581
				0.9073
				0.9153
				0.904122
				0.911832
				0.901955
				0.909271
				0.900869
				0.907695
				0.900901
				0.907152
				0.902049
				0.90766
				0.904276
				0.909202
				0.907512
				0.911728
				0.911661
				0.915163
				0.916611
				0.91941
				0.922242
				0.924364
				0.928433
				0.929911
				0.935066
				0.93594
				0.94203
				0.942342
				0.949223
				0.949016
				0.956549
				0.955868
				0.963926
				0.962813
				0.971276
				0.969775
				0.978533
				0.976682
				0.985634
				0.983474
				0.992527
				0.990096
				0.999165
				0.996498
				1.0055
				1.00264
				1.01151
				1.00848
				1.01715
				1.01399
				1.02241
				1.01914
				1.02725
				1.02391
				1.03167
				1.02829
				1.03565
				1.03227
				1.03919
				1.03585
				1.04229
				1.03904
				1.04496
				1.04181
				1.04717
				1.04412
				1.04882
				1.04586
				1.0496
				1.04692
				1.04968
				1.04764
				1.04222
				1.0439
				1.04173
				1.044
				1.04104
				1.04379
				1.03984
				1.04271
				1.03809
				1.041
				1.03593
				1.03893
				1.03343
				1.0365
				1.0306
				1.03369
				1.02742
				1.03051
				1.0239
				1.02695
				1.02005
				1.02304
				1.01587
				1.01877
				1.01138
				1.01417
				1.0066
				1.00925
				1.00156
				1.00404
				0.996287
				0.998559
				0.990809
				0.992849
				0.985169
				0.986945
				0.979411
				0.980889
				0.973585
				0.97473
				0.967748
				0.968524
				0.961963
				0.962333
				0.9563
				0.956228
				0.950834
				0.950285
				0.945649
				0.944588
				0.940831
				0.939227
				0.936473
				0.934298
				0.932664
				0.929899
				0.929492
				0.926128
				0.927037
				0.923077
				0.925364
				0.920826
				0.924522
				0.919439
				0.924536
				0.918957
				0.925406
				0.919395
				0.927106
				0.92074
				0.92959
				0.92295
				0.932791
				0.925964
				0.936628
				0.929701
				0.941016
				0.934071
				0.945863
				0.938977
				0.951078
				0.944322
				0.956574
				0.950011
				0.962269
				0.955953
				0.968086
				0.962065
				0.973958
				0.968269
				0.97982
				0.974497
				0.985616
				0.980686
				0.991298
				0.986779
				0.99682
				0.992727
				1.00214
				0.998486
				1.00723
				1.00402
				1.01206
				1.00929
				1.0166
				1.01426
				1.02083
				1.01892
				1.02472
				1.02324
				1.02827
				1.0272
				1.03145
				1.03078
				1.03426
				1.03398
				1.03669
				1.03676
				1.03872
				1.03914
				1.04036
				1.04109
				1.04159
				1.04262
				1.04241
				1.04371
				1.04282
				1.04437
				1.04282
				1.04459
				1.04241
				1.04437
				1.04159
				1.04371
				1.04036
				1.04262
				1.03873
				1.04109
				1.03669
				1.03914
				1.03427
				1.03677
				1.03146
				1.03398
				1.02827
				1.03079
				1.02472
				1.02721
				1.02083
				1.02325
				1.0166
				1.01893
				1.01206
				1.01427
				1.00724
				1.00929
				1.00215
				1.00402
				0.996825
				0.998491
				0.991303
				0.992732
				0.985622
				0.986784
				0.979826
				0.980692
				0.973964
				0.974503
				0.968093
				0.968276
				0.962276
				0.962072
				0.956581
				0.955961
				0.951086
				0.950019
				0.945871
				0.944331
				0.941025
				0.938986
				0.936638
				0.934081
				0.9328
				0.929711
				0.9296
				0.925974
				0.927117
				0.922961
				0.925416
				0.920751
				0.924546
				0.919406
				0.924533
				0.918968
				0.925375
				0.91945
				0.927047
				0.920837
				0.929502
				0.923088
				0.932673
				0.926139
				0.936482
				0.929909
				0.940841
				0.934307
				0.945657
				0.939236
				0.950842
				0.944597
				0.956308
				0.950294
				0.961971
				0.956236
				0.967755
				0.962341
				0.973592
				0.968531
				0.979417
				0.974737
				0.985175
				0.980895
				0.990814
				0.986951
				0.996292
				0.992855
				1.00157
				0.998564
				1.00661
				1.00404
				1.01139
				1.00925
				1.01587
				1.01417
				1.02005
				1.01877
				1.02391
				1.02304
				1.02742
				1.02696
				1.0306
				1.03051
				1.03343
				1.03369
				1.03593
				1.0365
				1.03809
				1.03894
				1.03984
				1.04101
				1.04104
				1.04271
				1.04173
				1.04379
				1.04223
				1.044
				1.03811
				1.03656
				1.03828
				1.03632
				1.03778
				1.03588
				1.03654
				1.03514
				1.03497
				1.03389
				1.0331
				1.03226
				1.03092
				1.03034
				1.02842
				1.02813
				1.0256
				1.02564
				1.02247
				1.02285
				1.01905
				1.01978
				1.01534
				1.01643
				1.01136
				1.01282
				1.00713
				1.00895
				1.00266
				1.00486
				0.997984
				1.00056
				0.993133
				0.996083
				0.988138
				0.991454
				0.983039
				0.986711
				0.977881
				0.981894
				0.972714
				0.977047
				0.967596
				0.972223
				0.962588
				0.967476
				0.957759
				0.96287
				0.95318
				0.958469
				0.94893
				0.954345
				0.945087
				0.950569
				0.94173
				0.947217
				0.938934
				0.944358
				0.936767
				0.942058
				0.935284
				0.940375
				0.934525
				0.93935
				0.93451
				0.939013
				0.935242
				0.939372
				0.936699
				0.94042
				0.938841
				0.942127
				0.941615
				0.94445
				0.944953
				0.947334
				0.948781
				0.950711
				0.953021
				0.954512
				0.957594
				0.958662
				0.962425
				0.96309
				0.96744
				0.967725
				0.97257
				0.9725
				0.977754
				0.977354
				0.982936
				0.982231
				0.988063
				0.987081
				0.993091
				0.991856
				0.997979
				0.996518
				1.00269
				1.00103
				1.0072
				1.00536
				1.01147
				1.00949
				1.01549
				1.01338
				1.01923
				1.01702
				1.02268
				1.02039
				1.02581
				1.02348
				1.02863
				1.02627
				1.03111
				1.02875
				1.03326
				1.03092
				1.03505
				1.03277
				1.0365
				1.03428
				1.03758
				1.03547
				1.03831
				1.03632
				1.03867
				1.03683
				1.03867
				1.037
				1.03831
				1.03683
				1.03758
				1.03632
				1.0365
				1.03547
				1.03505
				1.03429
				1.03326
				1.03277
				1.03111
				1.03092
				1.02863
				1.02875
				1.02582
				1.02627
				1.02268
				1.02348
				1.01923
				1.02039
				1.01549
				1.01702
				1.01148
				1.01338
				1.0072
				1.00949
				1.0027
				1.00537
				0.997983
				1.00103
				0.993095
				0.996523
				0.988068
				0.991861
				0.982941
				0.987085
				0.97776
				0.982237
				0.972576
				0.97736
				0.967446
				0.972506
				0.962432
				0.967731
				0.957602
				0.963097
				0.953029
				0.958669
				0.948789
				0.954519
				0.944961
				0.950719
				0.941624
				0.947342
				0.93885
				0.944459
				0.936708
				0.942136
				0.935251
				0.940428
				0.93452
				0.939381
				0.934534
				0.939022
				0.935293
				0.939359
				0.936776
				0.940383
				0.938943
				0.942067
				0.941739
				0.944366
				0.945095
				0.947225
				0.948938
				0.950577
				0.953188
				0.954352
				0.957766
				0.958477
				0.962595
				0.962877
				0.967603
				0.967483
				0.972721
				0.972229
				0.977887
				0.977053
				0.983045
				0.981899
				0.988143
				0.986717
				0.993138
				0.991459
				0.997989
				0.996087
				1.00266
				1.00057
				1.00713
				1.00486
				1.01136
				1.00896
				1.01534
				1.01282
				1.01905
				1.01643
				1.02248
				1.01978
				1.0256
				1.02285
				1.02842
				1.02564
				1.03092
				1.02814
				1.0331
				1.03034
				1.03497
				1.03226
				1.03655
				1.03389
				1.03779
				1.03514
				1.03828
				1.03588
				1.03811
				1.03632
				1.03099
				1.03242
				1.03072
				1.03265
				1.03031
				1.03267
				1.0295
				1.03189
				1.02831
				1.0307
				1.02686
				1.0293
				1.02518
				1.02764
				1.02325
				1.02571
				1.02108
				1.02352
				1.01866
				1.02106
				1.01601
				1.01835
				1.01314
				1.0154
				1.01005
				1.01222
				1.00677
				1.00882
				1.00331
				1.00521
				0.999686
				1.00143
				0.995931
				0.997489
				0.992068
				0.993416
				0.98813
				0.989243
				0.984152
				0.985005
				0.980175
				0.980744
				0.976243
				0.976503
				0.972406
				0.972333
				0.968716
				0.968289
				0.965232
				0.964428
				0.962009
				0.960812
				0.959105
				0.957506
				0.95658
				0.954571
				0.954489
				0.952067
				0.952875
				0.950054
				0.95178
				0.948576
				0.951229
				0.947671
				0.951239
				0.94736
				0.951808
				0.947654
				0.952922
				0.948544
				0.954554
				0.950008
				0.956668
				0.952009
				0.959213
				0.954501
				0.962137
				0.957428
				0.965382
				0.96073
				0.968891